LAMMPS (3 Mar 2020)

#----------------------------------------------#
#-------------- BULK SIMULATION ---------------#
#----------------------------------------------#

# ---------- INPUT ----------
# Molecule data
variable        MolData     string "Decane.TraPPE-UA"
variable        N           equal 2000                   # Nr. of molecules
# Read data
variable        i_ReadData  equal 0                     # 0 - create atoms, 1,2,3,... - read data file
variable        file        string "Bulk_NVT"           # Data file to read (just file ending)
# State point
variable        tmp         equal 373.15
variable        rho_in      equal 0.76028
# Strain rate
variable        s_rate      equal 1.0e+10
# Numerics
variable        dt          equal 0.0005
variable        n_run       equal 22e6                   # NVT run
variable        n_equ       equal 1e4                   # Nr. of ts before production run
variable        c_Tdamp     equal 100                   # Suggested by lammps: 100
# Ensemble string
variable        ensemble    string "NVT"
# Write data
variable        do_set_E    equal 0                     # Scale total Energy at the end of run
# ---------------------------

# ---------- Simulation setup ---------
variable        norun       equal ${i_ReadData}+1
variable        norun       equal 0+1


# Set simulation conditions
units           metal
atom_style      full

dimension       3
atom_modify     map array
boundary        p p p
neighbor        2 multi
neigh_modify    every 2 delay 2 check yes

# Set timestep
timestep        ${dt}
timestep        0.0005

# Define lower start density
variable        rho_start equal 0.5*${rho_in}
variable        rho_start equal 0.5*0.76028

include         ${MolData}.inMolData
include         Decane.TraPPE-UA.inMolData
# -------------------- MolData --------------------
# Molecule:     n-Decane
# Force field:  TraPPE-UA
# Source:       Martin, M. G.; Siepmann, J. I. Transferable Potentials for Phase Equilibria. 1. United-Atom Description of n-Alkanes. The Journal of Physical Chemistry B 102 (14), 2569–2577.

variable        M_molar equal 142.2818

if "${i_ReadData} > 0" then 	"read_data      data.${i_ReadData}.${file}" else 	"variable       L_box equal (($N*${M_molar}*1e24)/(${rho_start}*6.02214076e23))^(1/3)"     "region         SimBox block 0 ${L_box} 0 ${L_box} 0 ${L_box}"     "create_box     4 SimBox bond/types 1 angle/types 3 dihedral/types 4 extra/bond/per/atom 2 extra/angle/per/atom 3 extra/dihedral/per/atom 4 extra/special/per/atom 6"     "molecule       1 ./Decane_UA.molecule"     "create_atoms   0 random ${N} 633 NULL mol 1 573"
variable       L_box equal (($N*${M_molar}*1e24)/(${rho_start}*6.02214076e23))^(1/3)
variable       L_box equal ((2000*${M_molar}*1e24)/(${rho_start}*6.02214076e23))^(1/3)
variable       L_box equal ((2000*142.2818*1e24)/(${rho_start}*6.02214076e23))^(1/3)
variable       L_box equal ((2000*142.2818*1e24)/(0.38014*6.02214076e23))^(1/3)
region         SimBox block 0 ${L_box} 0 ${L_box} 0 ${L_box}
region         SimBox block 0 107.521411721821 0 ${L_box} 0 ${L_box}
region         SimBox block 0 107.521411721821 0 107.521411721821 0 ${L_box}
region         SimBox block 0 107.521411721821 0 107.521411721821 0 107.521411721821
create_box     4 SimBox bond/types 1 angle/types 3 dihedral/types 4 extra/bond/per/atom 2 extra/angle/per/atom 3 extra/dihedral/per/atom 4 extra/special/per/atom 6
Created orthogonal box = (0 0 0) to (107.521 107.521 107.521)
  2 by 3 by 4 MPI processor grid
molecule       1 ./Decane_UA.molecule
Read molecule 1:
  10 atoms with max type 2
  9 bonds with max type 1
  8 angles with max type 1
  7 dihedrals with max type 1
  0 impropers with max type 0
create_atoms   0 random ${N} 633 NULL mol 1 573
create_atoms   0 random 2000 633 NULL mol 1 573
Created 20000 atoms
  create_atoms CPU = 0.00660567 secs

# Include Force Field Parameter
include          TraPPE-UA.parameter
# -------------------- MolData --------------------
# Molecule:     n-Decane
# Force field:  TraPPE
# ----- Sources: -----



# Mass of particeles ( https://de.webqc.org/mmcalc.php )
mass            1 15.0345       # CH3
mass            2 14.0266       # CH2
mass            3 13.0186       # CH
mass            4 12.0107       # C

# Charges of particles
set                 type * charge 0.0
Setting atom values ...
  20000 settings made for charge

# TraPPE FF
# Nonbonded interaction
 pair_style      lj/cut 14
#pair_style      lj/long/coul/long long off 14
pair_coeff      1 1 0.00844499   3.75
pair_coeff      2 2 0.00396397   3.95
pair_coeff      3 3 0.000861733  4.68
pair_coeff      4 4 0.0000430867 6.4

pair_modify     mix arithmetic
pair_modify     tail yes

# kspace_style    ewald/disp 1.0e-4

# Bonded interaction
bond_style      harmonic
bond_coeff      1  9.756926 1.540           # CHARMM
# bond_coeff      1 14.820905 1.540           # GROMOS (4) -> actually parameter for quartic bond
# bond_coeff      1 11.621583 1.540           # OPLS-AA (5)


angle_style     harmonic
angle_coeff     1 2.692917 114
angle_coeff     2 2.692917 112
angle_coeff     3 2.692917 109.47


dihedral_style  fourier
dihedral_coeff  1 3                0.0305941 1 0 -0.00587614 2 180 0.0681905 3 0
dihedral_coeff  2 4 -0.0216347 0 0 0.0369451 1 0 -0.00963850 2 180 0.0380257 3 0
dihedral_coeff  3 1                                                0.0397509 3 0
dihedral_coeff  4 4 -0.0216347 0 0 0.0369451 1 0 -0.00963850 2 180 0.0380257 3 0

# Use of shake algorithm (0 - no, 1 - yes)
variable        do_shake equal 0

# Use multiple time step integrator 'respa'
# run_style       respa 2 2 2 bond 1 angle 2

change_box      all triclinic
Changing box ...
  triclinic box = (0 0 0) to (107.521 107.521 107.521) with tilt (0 0 0)

# Set density by setting box length
variable 		factor_L equal "(density / v_rho_in)^(1/3)"
if "${rho_in} == 0 && ${i_ReadData} == 0" then "quit"
if "${rho_in} != 0" then     "change_box 		all x scale ${factor_L} y scale ${factor_L} z scale ${factor_L} remap"
change_box 		all x scale ${factor_L} y scale ${factor_L} z scale ${factor_L} remap
change_box 		all x scale 0.793700502699948 y scale ${factor_L} z scale ${factor_L} remap
change_box 		all x scale 0.793700502699948 y scale 0.793700502699948 z scale ${factor_L} remap
change_box 		all x scale 0.793700502699948 y scale 0.793700502699948 z scale 0.793700502699948 remap
Changing box ...
  triclinic box = (11.0908 0 0) to (96.4306 107.521 107.521) with tilt (0 0 0)
  triclinic box = (11.0908 11.0908 0) to (96.4306 96.4306 107.521) with tilt (0 0 0)
  triclinic box = (11.0908 11.0908 11.0908) to (96.4306 96.4306 96.4306) with tilt (0 0 0)

# Set velocity atoms defined by temperature
if "${i_ReadData} == 0" then "velocity all create ${tmp} 19"
velocity all create ${tmp} 19
velocity all create 373.15 19

# ---------- Minimize Eenergy ---------
if "${i_ReadData} == 0" then   "minimize   0.001 1.0e-4 1000 10000"
minimize   0.001 1.0e-4 1000 10000
WARNING: Using 'neigh_modify every 1 delay 0 check yes' setting during minimization (../min.cpp:190)
Neighbor list info ...
  update every 1 steps, delay 0 steps, check yes
  max neighbors/atom: 2000, page size: 100000
  master list distance cutoff = 16
  ghost atom cutoff = 16
  binsize = 8, bins = 11 11 11
  1 neighbor lists, perpetual/occasional/extra = 1 0 0
  (1) pair lj/cut, perpetual
      attributes: half, newton on
      pair build: half/multi/newton/tri
      stencil: half/multi/3d/newton/tri
      bin: standard
Setting up cg style minimization ...
  Unit style    : metal
  Current step  : 0
Per MPI rank memory allocation (min/avg/max) = 10.75 | 11.1 | 11.18 Mbytes
Step Temp E_pair E_mol TotEng Press 
       0       373.15 2.9274925e+17    18650.198 2.9274925e+17 3.0186399e+18 
     360       373.15    -1008.827    207.36701    163.16024     3221.364 
Loop time of 2.3462 on 24 procs for 360 steps with 20000 atoms

99.8% CPU use with 24 MPI tasks x no OpenMP threads

Minimization stats:
  Stopping criterion = energy tolerance
  Energy initial, next-to-last, final = 
     2.92749254235e+17     -800.833868938     -801.459991876
  Force two-norm initial, final = 4.74897e+19 4.41439
  Force max component initial, final = 3.14897e+19 1.33951
  Final line search alpha, max atom move = 0.122307 0.163832
  Iterations, force evaluations = 360 432

MPI task timing breakdown:
Section |  min time  |  avg time  |  max time  |%varavg| %total
---------------------------------------------------------------
Pair    | 1.1768     | 1.6177     | 1.9991     |  17.3 | 68.95
Bond    | 0.032586   | 0.039678   | 0.045676   |   1.8 |  1.69
Neigh   | 0.20997    | 0.21033    | 0.21067    |   0.1 |  8.96
Comm    | 0.071165   | 0.4499     | 0.89986    |  33.1 | 19.18
Output  | 0          | 0          | 0          |   0.0 |  0.00
Modify  | 0          | 0          | 0          |   0.0 |  0.00
Other   |            | 0.02861    |            |       |  1.22

Nlocal:    833.333 ave 914 max 736 min
Histogram: 1 1 5 0 3 1 7 2 1 3
Nghost:    6930.62 ave 7160 max 6726 min
Histogram: 3 1 5 2 1 3 4 1 2 2
Neighs:    229436 ave 267344 max 183691 min
Histogram: 2 1 3 2 2 3 3 3 2 3

Total # of neighbors = 5506460
Ave neighs/atom = 275.323
Ave special neighs/atom = 4.8
Neighbor list builds = 20
Dangerous builds = 0

# -------------- MD NVT ---------------
# NpT/NVT Setup
variable        Tdamp equal ${c_Tdamp}*dt
variable        Tdamp equal 100*dt

# Log File
thermo          1000
thermo_style    custom step atoms vol temp press density etotal pe ke

# Ensemble Setup and Shake Fix
if "${do_shake} == 1" then      "fix        shk all shake 1e-5 100 10000 b 2"
fix             NVT all nvt temp ${tmp} ${tmp} ${Tdamp}
fix             NVT all nvt temp 373.15 ${tmp} ${Tdamp}
fix             NVT all nvt temp 373.15 373.15 ${Tdamp}
fix             NVT all nvt temp 373.15 373.15 0.05

# --- Equilibration ---
run             ${n_equ}
run             10000
Setting up Verlet run ...
  Unit style    : metal
  Current step  : 360
  Time step     : 0.0005
Per MPI rank memory allocation (min/avg/max) = 9.623 | 9.994 | 10.06 Mbytes
Step Atoms Volume Temp Press Density TotEng PotEng KinEng 
     360    20000    621519.62       373.15     3221.364      0.76028    163.16024   -801.45999    964.62023 
    1000    20000    621519.62    344.68777      3365.83      0.76028    761.32434   -129.71893    891.04327 
    2000    20000    621519.62    357.48754     2144.344      0.76028    891.28504   -32.846583    924.13163 
    3000    20000    621519.62     375.7822    1664.0901      0.76028    905.84965   -65.575006    971.42466 
    4000    20000    621519.62    375.57389    1755.2125      0.76028    912.74816   -58.138012    970.88617 
    5000    20000    621519.62    370.99826    1431.8239      0.76028    918.95888   -40.098944    959.05783 
    6000    20000    621519.62    371.82662    1666.8908      0.76028    931.55823   -29.640954    961.19919 
    7000    20000    621519.62    368.74017    1169.5009      0.76028    924.05544   -29.165052    953.22049 
    8000    20000    621519.62    371.37664    1102.8772      0.76028    925.89171   -34.144244    960.03596 
    9000    20000    621519.62    371.42259    1147.7138      0.76028    946.53454   -13.620197    960.15473 
   10000    20000    621519.62    372.71389    1168.6261      0.76028    944.58453   -18.908328    963.49286 
   10360    20000    621519.62     370.7003    1143.4975      0.76028    930.14813   -28.139448    958.28758 
Loop time of 32.9788 on 24 procs for 10000 steps with 20000 atoms

Performance: 13.099 ns/day, 1.832 hours/ns, 303.225 timesteps/s
99.9% CPU use with 24 MPI tasks x no OpenMP threads

MPI task timing breakdown:
Section |  min time  |  avg time  |  max time  |%varavg| %total
---------------------------------------------------------------
Pair    | 25.825     | 27.296     | 28.674     |  19.3 | 82.77
Bond    | 0.75401    | 0.7982     | 0.83859    |   3.1 |  2.42
Neigh   | 1.0076     | 1.0089     | 1.01       |   0.1 |  3.06
Comm    | 2.1152     | 3.4774     | 5.0345     |  55.9 | 10.54
Output  | 0.00037847 | 0.00047976 | 0.0025687  |   0.0 |  0.00
Modify  | 0.25052    | 0.33336    | 0.52299    |  18.6 |  1.01
Other   |            | 0.06406    |            |       |  0.19

Nlocal:    833.333 ave 865 max 808 min
Histogram: 2 1 3 3 5 7 0 2 0 1
Nghost:    6924.33 ave 6984 max 6863 min
Histogram: 4 0 1 3 4 3 3 2 0 4
Neighs:    227741 ave 238577 max 216134 min
Histogram: 1 2 1 3 4 7 0 3 1 2

Total # of neighbors = 5465789
Ave neighs/atom = 273.289
Ave special neighs/atom = 4.8
Neighbor list builds = 96
Dangerous builds = 0

# --- Actual Run ---
reset_timestep  0

unfix           NVT

# Setup for sllod
fix             NVT_sllod all nvt/sllod temp ${tmp} ${tmp} ${Tdamp}
fix             NVT_sllod all nvt/sllod temp 373.15 ${tmp} ${Tdamp}
fix             NVT_sllod all nvt/sllod temp 373.15 373.15 ${Tdamp}
fix             NVT_sllod all nvt/sllod temp 373.15 373.15 0.05
variable        s_rate_ps equal ${s_rate}*1e-12
variable        s_rate_ps equal 10000000000*1e-12
fix             shear all deform 1 yz erate ${s_rate_ps} remap v
fix             shear all deform 1 yz erate 0.01 remap v

include         in.ThermoOutput_sllod
# Script to write out data for subsequent calculation of transport coefficients

# ----------  General ----------
variable 		dt equal dt
variable        N_atoms equal atoms
variable 		V equal vol
compute         T_deform all temp/deform
thermo_modify   temp T_deform
variable 		T equal c_T_deform
compute         p_deform all pressure T_deform
thermo_modify   press p_deform
variable		p equal c_p_deform
variable		p equal press
variable		pxy equal c_p_deform[4]
variable		pxz equal c_p_deform[5]
variable		pyz equal c_p_deform[6]
variable		rho equal density
variable 		Etot equal etotal
variable 		Ekin equal ke
variable 		Epot equal pe
variable        eta equal -c_p_deform[6]*1e5/v_s_rate
variable        header string "MolType: ${MolData}; TimeStep: ${dt}; No. Atoms: ${N_atoms};"
MolType: Decane.TraPPE-UA; TimeStep: ${dt}; No. Atoms: ${N_atoms};
MolType: Decane.TraPPE-UA; TimeStep: 0.0005; No. Atoms: ${N_atoms};
MolType: Decane.TraPPE-UA; TimeStep: 0.0005; No. Atoms: 20000;

# Print Simulation info to file -> info.dat
print			"MolType: ${MolData}" file info.${ensemble}.${norun}.dat
print			"MolType: ${MolData}" file info.NVT.${norun}.dat
print			"MolType: ${MolData}" file info.NVT.1.dat
MolType: Decane.TraPPE-UA
print			"TimeStep: ${dt}" append info.${ensemble}.${norun}.dat
print			"TimeStep: ${dt}" append info.NVT.${norun}.dat
print			"TimeStep: ${dt}" append info.NVT.1.dat
TimeStep: 0.0005
print			"No. Atoms: ${N_atoms}" append info.${ensemble}.${norun}.dat
print			"No. Atoms: ${N_atoms}" append info.NVT.${norun}.dat
print			"No. Atoms: ${N_atoms}" append info.NVT.1.dat
No. Atoms: 20000
print			"Average Molar Mass: ${M_molar}" append info.${ensemble}.${norun}.dat
print			"Average Molar Mass: ${M_molar}" append info.NVT.${norun}.dat
print			"Average Molar Mass: ${M_molar}" append info.NVT.1.dat
Average Molar Mass: 142.2818

# ---------- Thermodynamics Output to Calculate Averages ----------
# -> output: thermo.dat
# Averaging Setup
variable		nfre equal 1000
fix				thermo_ave all ave/time 1 ${nfre} ${nfre} 					v_T v_p v_rho v_Etot v_Ekin v_Epot v_pyz v_eta 					file thermo.${ensemble}.${norun}.dat
fix				thermo_ave all ave/time 1 1000 ${nfre} 					v_T v_p v_rho v_Etot v_Ekin v_Epot v_pyz v_eta 					file thermo.${ensemble}.${norun}.dat
fix				thermo_ave all ave/time 1 1000 1000 					v_T v_p v_rho v_Etot v_Ekin v_Epot v_pyz v_eta 					file thermo.${ensemble}.${norun}.dat
fix				thermo_ave all ave/time 1 1000 1000 					v_T v_p v_rho v_Etot v_Ekin v_Epot v_pyz v_eta 					file thermo.NVT.${norun}.dat
fix				thermo_ave all ave/time 1 1000 1000 					v_T v_p v_rho v_Etot v_Ekin v_Epot v_pyz v_eta 					file thermo.NVT.1.dat

# ---------- Velocities along z axis ----------
# -> output: vy_profile.dat
variable        nbin equal 10
variable        dz equal 1/${nbin}
variable        dz equal 1/10
variable		neve_pro equal 1
variable		nrep_pro equal 1000
variable		nfre_pro equal 1000
compute         layers all chunk/atom bin/1d z center ${dz} units reduced
compute         layers all chunk/atom bin/1d z center 0.1 units reduced
fix		        profile all ave/chunk ${neve_pro} ${nrep_pro} ${nfre_pro} layers vy file vy_profile.dat
fix		        profile all ave/chunk 1 ${nrep_pro} ${nfre_pro} layers vy file vy_profile.dat
fix		        profile all ave/chunk 1 1000 ${nfre_pro} layers vy file vy_profile.dat
fix		        profile all ave/chunk 1 1000 1000 layers vy file vy_profile.dat

# ---------- Atoms Positions to Calculate Mean Square Displacement ----------
# -> output: atoms_position.dump
# variable    	ndump equal 1000
# dump			atomspos all custom ${ndump} atoms_position.${ensemble}.${norun}.dump id mol mass xu yu zu

run             ${n_run}
run             22000000
Setting up Verlet run ...
  Unit style    : metal
  Current step  : 0
  Time step     : 0.0005
Per MPI rank memory allocation (min/avg/max) = 10.28 | 10.3 | 10.33 Mbytes
Step Atoms Volume Temp Press Density TotEng PotEng KinEng 
       0    20000    621519.62    372.00995    1149.3157      0.76028    933.53366   -28.139448    961.67311 
    1000    20000    621519.62    377.16206    1282.9483      0.76028    952.03677   -22.954916    974.99169 
    2000    20000    621519.62    372.29094    1181.6759      0.76028    942.30588   -20.093615    962.39949 
    3000    20000    621519.62     373.1396    1144.4508      0.76028    937.02259   -27.570745    964.59334 
    4000    20000    621519.62    377.80209    1266.7167      0.76028    959.65274   -16.993493    976.64624 
    5000    20000    621519.62    379.65595    1124.6728      0.76028    965.04975   -16.388829    981.43858 
    6000    20000    621519.62    368.95791    1088.4972      0.76028    936.44181   -17.341564    953.78337 
    7000    20000    621519.62    370.98702    861.41851      0.76028    944.83638   -14.192398    959.02877 
    8000    20000    621519.62    374.83996    1147.8649      0.76028    943.37314   -25.615762     968.9889 
    9000    20000    621519.62    373.54469    1162.0039      0.76028    961.80385   -3.8366856    965.64053 
   10000    20000    621519.62     370.8143    885.46235      0.76028    935.84221   -22.740058    958.58227 
   11000    20000    621519.62    372.20669    1074.6218      0.76028    947.12403   -15.057672     962.1817 
   12000    20000    621519.62    370.21866    1287.8227      0.76028    944.85883   -12.183672     957.0425 
   13000    20000    621519.62    372.54354    1031.8938      0.76028    951.28879   -11.763711     963.0525 
   14000    20000    621519.62    371.86418    1087.9845      0.76028    959.31316   -1.9831214    961.29628 
   15000    20000    621519.62    372.71077    1039.8033      0.76028    947.26713   -16.217655    963.48478 
   16000    20000    621519.62    374.98429    1154.6281      0.76028     954.0616   -15.300401      969.362 
   17000    20000    621519.62    374.14806    890.53208      0.76028    956.18751   -11.012771    967.20028 
   18000    20000    621519.62    376.45266     1026.333      0.76028     960.7337   -12.424151    973.15785 
   19000    20000    621519.62    373.34717    1115.9325      0.76028    962.13612   -2.9938158    965.12994 
   20000    20000    621519.62    368.42083    1102.0698      0.76028     929.0222   -23.372772    952.39497 
   21000    20000    621519.62    374.89897    1485.1227      0.76028     967.1451   -1.9963556    969.14145 
   22000    20000    621519.62    375.90101    1254.0682      0.76028    970.49693   -1.2348721     971.7318 
   23000    20000    621519.62     373.0206    1257.8551      0.76028    955.01795   -9.2677703    964.28572 
   24000    20000    621519.62    376.97779     1214.601      0.76028    955.62875   -18.886599    974.51535 
   25000    20000    621519.62    374.71873    942.89366      0.76028    962.28749   -6.3880172     968.6755 
   26000    20000    621519.62    372.61059    927.94061      0.76028    961.87442   -1.3513824    963.22581 
   27000    20000    621519.62    377.12361    872.49721      0.76028    970.41093   -4.4813794    974.89231 
   28000    20000    621519.62    373.09268    1061.9084      0.76028    950.52931   -13.942754    964.47206 
   29000    20000    621519.62    374.02252    1169.8516      0.76028    956.23646   -10.639287    966.87575 
   30000    20000    621519.62    373.66342    1219.0836      0.76028    962.52741   -3.4200549    965.94747 
   31000    20000    621519.62     371.1516    1024.4298      0.76028     966.7557    7.3014839    959.45421 
   32000    20000    621519.62    372.38174    975.85955      0.76028    968.56636    5.9321478    962.63422 
   33000    20000    621519.62    372.29241    944.82946      0.76028    962.82784   0.42454262     962.4033 
   34000    20000    621519.62    373.12313    908.20388      0.76028     964.0417   -0.5090618    964.55076 
   35000    20000    621519.62     371.1982    1142.0299      0.76028    956.54896   -3.0257264    959.57469 
   36000    20000    621519.62    373.19567    1139.9652      0.76028    966.81662    2.0783313    964.73829 
   37000    20000    621519.62    374.60462    1225.3912      0.76028    967.67319  -0.70733926    968.38053 
   38000    20000    621519.62    371.61573     1100.989      0.76028     963.1034    2.4493758    960.65403 
   39000    20000    621519.62     372.8564    947.08389      0.76028     958.0595     -5.80175    963.86125 
   40000    20000    621519.62    377.84564    891.75446      0.76028    963.71169   -13.047118    976.75881 
   41000    20000    621519.62     372.5592    1084.6165      0.76028    955.32916   -7.7638021    963.09296 
   42000    20000    621519.62    372.09324    1018.9068      0.76028    947.90689   -13.981532    961.88842 
   43000    20000    621519.62    376.09223     994.1504      0.76028     958.6721   -13.554017    972.22612 
   44000    20000    621519.62    373.01151    1125.1581      0.76028    952.47664   -11.785583    964.26222 
   45000    20000    621519.62     375.2638    1009.7449      0.76028    967.41595    -2.668614    970.08457 
   46000    20000    621519.62    375.15977    939.34376      0.76028    961.35099   -8.4646366    969.81563 
   47000    20000    621519.62    370.05065    709.89669      0.76028    944.50537   -12.102825    956.60819 
   48000    20000    621519.62    374.41579    1070.1721      0.76028    965.66811   -2.2242867     967.8924 
   49000    20000    621519.62    370.29989    859.97642      0.76028    945.74165   -11.510834    957.25249 
   50000    20000    621519.62     370.4462    687.05957      0.76028    940.74233   -16.888377    957.63071 
   51000    20000    621519.62    376.88675    1119.1932      0.76028    969.85739   -4.4226219    974.28001 
   52000    20000    621519.62     372.7716    1097.7813      0.76028    951.05333   -12.588704    963.64204 
   53000    20000    621519.62    372.87384    898.10296      0.76028    953.18686   -10.719462    963.90632 
   54000    20000    621519.62    373.01869    949.72387      0.76028    951.98847   -12.292322    964.28079 
   55000    20000    621519.62    373.98336      997.714      0.76028    955.50989    -11.26465    966.77454 
   56000    20000    621519.62    371.73132    852.91623      0.76028    955.89536   -5.0574708    960.95283 
   57000    20000    621519.62    379.00239    1222.6169      0.76028    971.00188   -8.7472059    979.74908 
   58000    20000    621519.62     371.3655    952.33521      0.76028    957.73346   -2.2737113    960.00717 
   59000    20000    621519.62     371.3538    1044.3168      0.76028    946.85093   -13.126002    959.97693 
   60000    20000    621519.62    373.37551    1027.7463      0.76028    945.83271   -19.370478    965.20319 
   61000    20000    621519.62    372.89916    1052.0041      0.76028    952.30706   -11.664729    963.97179 
   62000    20000    621519.62    371.32897    1039.9673      0.76028    950.34861   -9.5641316    959.91274 
   63000    20000    621519.62    375.60308    1075.0044      0.76028    969.30375    -1.657866    970.96162 
   64000    20000    621519.62    372.66088    813.57269      0.76028    948.35101   -15.004794    963.35581 
   65000    20000    621519.62     373.3553    1079.6239      0.76028    962.73311    -2.417832    965.15095 
   66000    20000    621519.62    374.18795    1065.1019      0.76028    952.83477   -14.468636     967.3034 
   67000    20000    621519.62    374.29291    1112.3867      0.76028    963.87622   -3.6985095    967.57472 
   68000    20000    621519.62    373.04074    1021.8957      0.76028    947.53101   -16.806782    964.33779 
   69000    20000    621519.62    374.82895    1234.7599      0.76028    966.16537    -2.795077    968.96045 
   70000    20000    621519.62    372.94018    1207.6773      0.76028    963.68975  -0.38807556    964.07782 
   71000    20000    621519.62    371.65893    958.12973      0.76028    958.37463   -2.3910778    960.76571 
   72000    20000    621519.62    373.00906    1145.7673      0.76028    957.55663   -6.6992476    964.25588 
   73000    20000    621519.62    374.03342    1149.3726      0.76028    949.17852    -17.72541    966.90393 
   74000    20000    621519.62    372.23672    1115.1943      0.76028    950.30596   -11.953358    962.25932 
   75000    20000    621519.62    372.56382    1043.1637      0.76028     965.7116    2.6066849    963.10491 
   76000    20000    621519.62    368.31422    1050.0063      0.76028    947.54675   -4.5726308    952.11938 
   77000    20000    621519.62    374.45914    808.18749      0.76028    955.39714   -12.607326    968.00446 
   78000    20000    621519.62    373.70322    1078.1578      0.76028    961.90537   -4.1449643    966.05033 
   79000    20000    621519.62    372.31319    1011.0895      0.76028    950.64389   -11.813136    962.45702 
   80000    20000    621519.62    374.52843    960.18642      0.76028    967.79812  -0.38545208    968.18358 
   81000    20000    621519.62    373.43175    1161.6233      0.76028    967.64579    2.2972193    965.34857 
   82000    20000    621519.62     375.7714    1090.2626      0.76028    964.14226   -7.2544726    971.39673 
   83000    20000    621519.62    377.01289    902.28283      0.76028    978.50036    3.8942707    974.60609 
   84000    20000    621519.62    368.45242    979.08614      0.76028    938.01841   -14.458219    952.47663 
   85000    20000    621519.62    370.52285    948.54617      0.76028    951.23646   -6.5923877    957.82885 
   86000    20000    621519.62    374.93378    837.89087      0.76028    976.24786    7.0164335    969.23143 
   87000    20000    621519.62    372.69443    1043.1244      0.76028    964.81483     1.372288    963.44254 
   88000    20000    621519.62    374.93457    1122.3864      0.76028    969.13181  -0.10166468    969.23347 
   89000    20000    621519.62    373.25899     1083.391      0.76028    959.19866   -5.7033122    964.90197 
   90000    20000    621519.62    374.77996    976.01406      0.76028    964.65735   -4.1764418     968.8338 
   91000    20000    621519.62     370.6136    1081.9366      0.76028    948.44124   -9.6221988    958.06344 
   92000    20000    621519.62    371.33678    940.57356      0.76028    960.06468   0.13176562    959.93292 
   93000    20000    621519.62    372.36208    1029.6455      0.76028    951.70354   -10.879856     962.5834 
   94000    20000    621519.62    372.84306    1088.0096      0.76028    950.48372   -13.343049    963.82676 
   95000    20000    621519.62    375.53824    1160.6161      0.76028    956.70297   -14.091022    970.79399 
   96000    20000    621519.62     374.1072     1075.313      0.76028    954.47491   -12.619746    967.09466 
   97000    20000    621519.62    372.77895    988.61771      0.76028    955.64114   -8.0198942    963.66103 
   98000    20000    621519.62    375.51207    1000.3458      0.76028    962.11372   -8.6126296    970.72635 
   99000    20000    621519.62    371.79782    1191.4347      0.76028    950.34791   -10.776825    961.12474 
  100000    20000    621519.62    375.74001    1081.4992      0.76028    977.62199    6.3064045    971.31559 
  101000    20000    621519.62    373.21547    1039.7576      0.76028    954.77862   -10.010847    964.78947 
  102000    20000    621519.62    372.71496    885.48917      0.76028    960.43135   -3.0642693    963.49562 
  103000    20000    621519.62    372.53061    1115.4439      0.76028    959.18198   -3.8370803    963.01906 
  104000    20000    621519.62     377.8052    1207.4827      0.76028    962.40709   -14.247168    976.65426 
  105000    20000    621519.62    379.68149    1351.4046      0.76028    973.12568   -8.3789342    981.50461 
  106000    20000    621519.62    375.77902    997.44222      0.76028     967.2681   -4.1483342    971.41644 
  107000    20000    621519.62    374.72595    726.84226      0.76028    955.67352   -13.020662    968.69419 
  108000    20000    621519.62    371.54231    906.43013      0.76028    946.70185    -13.76239    960.46424 
  109000    20000    621519.62    375.42115    854.17349      0.76028    964.45797   -6.0333395    970.49131 
  110000    20000    621519.62    375.39647    932.79991      0.76028    968.82575   -1.6017641    970.42751 
  111000    20000    621519.62    369.88348    882.17467      0.76028    944.74124   -11.434788    956.17603 
  112000    20000    621519.62    372.16701    1008.1171      0.76028    959.74008    -2.339049    962.07913 
  113000    20000    621519.62     373.1176    1165.9563      0.76028    958.38578   -6.1507019    964.53648 
  114000    20000    621519.62    371.03062    1312.2775      0.76028    947.82182   -11.319659    959.14148 
  115000    20000    621519.62    372.11793    1078.1379      0.76028    949.63689   -12.315352    961.95224 
  116000    20000    621519.62    373.41656    1003.5027      0.76028    955.91661   -9.3926916     965.3093 
  117000    20000    621519.62    370.93377    832.12003      0.76028    950.43651    -8.454599    958.89111 
  118000    20000    621519.62    373.34017     1009.527      0.76028      961.623   -3.4888285    965.11182 
  119000    20000    621519.62    372.43161    1022.2877      0.76028    952.06403   -10.699114    962.76315 
  120000    20000    621519.62    372.90002    1007.0291      0.76028    960.09341   -3.8806032    963.97401 
  121000    20000    621519.62    369.19817    1021.5274      0.76028    953.35807   -1.0463828    954.40445 
  122000    20000    621519.62     371.9768     1213.669      0.76028    959.17433   -2.4130926    961.58742 
  123000    20000    621519.62    370.37916    868.12524      0.76028    948.37939   -9.0780262    957.45742 
  124000    20000    621519.62    374.65328    962.17361      0.76028    955.40044   -13.105877    968.50632 
  125000    20000    621519.62    374.10314    1164.1939      0.76028    958.83128    -8.252884    967.08417 
  126000    20000    621519.62     368.3562    1349.8695      0.76028     941.7918   -10.436111    952.22791 
  127000    20000    621519.62    372.59961     875.4855      0.76028    958.77537   -4.4220562    963.19742 
  128000    20000    621519.62    371.00953    1158.8201      0.76028    954.87328   -4.2136868    959.08696 
  129000    20000    621519.62    373.00378    781.03332      0.76028    941.45757    -22.78467    964.24224 
  130000    20000    621519.62    372.71262     1066.927      0.76028    959.57462   -3.9149513    963.48957 
  131000    20000    621519.62    373.48645    1074.1604      0.76028    947.19735   -18.292615    965.48997 
  132000    20000    621519.62    371.72867    931.16308      0.76028    962.74711    1.8011342    960.94597 
  133000    20000    621519.62    375.84657    976.21482      0.76028    956.93385   -14.657216    971.59107 
  134000    20000    621519.62     375.5004    981.32846      0.76028    955.87508   -14.821091    970.69617 
  135000    20000    621519.62    373.31264    960.38209      0.76028    962.07058   -2.9700742    965.04065 
  136000    20000    621519.62    373.79152    996.08445      0.76028    949.81391   -16.464694    966.27861 
  137000    20000    621519.62    371.24584    868.51376      0.76028    940.59702   -19.100819    959.69784 
  138000    20000    621519.62    376.82613    872.83232      0.76028    964.39077   -9.7325311     974.1233 
  139000    20000    621519.62    371.91266    1222.5465      0.76028    947.18596   -14.235655    961.42161 
  140000    20000    621519.62    371.22465    1055.8072      0.76028    956.45482   -3.1882489    959.64307 
  141000    20000    621519.62    372.57421    962.09498      0.76028    946.68526   -16.446494    963.13176 
  142000    20000    621519.62    371.82603    839.10712      0.76028    953.51609   -7.6815915    961.19768 
  143000    20000    621519.62    371.83155    866.58083      0.76028    947.96182   -13.250126    961.21195 
  144000    20000    621519.62    374.75611    1092.4352      0.76028    966.05023   -2.7219044    968.77213 
  145000    20000    621519.62    375.36422    1070.8401      0.76028    962.15027   -8.1938646    970.34414 
  146000    20000    621519.62    373.05574    1108.8197      0.76028    971.63018    7.2536043    964.37657 
  147000    20000    621519.62    370.88817    913.99857      0.76028    954.31581   -4.4574241    958.77324 
  148000    20000    621519.62    369.50367     966.3183      0.76028    947.28803   -7.9061683     955.1942 
  149000    20000    621519.62    374.14745    1061.3666      0.76028    968.43441    1.2357103     967.1987 
  150000    20000    621519.62    375.57415    922.54359      0.76028    972.28417    1.3973191    970.88685 
  151000    20000    621519.62    370.68526    1128.5058      0.76028    940.82128   -17.427418     958.2487 
  152000    20000    621519.62    372.71536    1284.0002      0.76028    964.09656   0.59991948    963.49664 
  153000    20000    621519.62    374.61429    1294.4029      0.76028     964.4536   -3.9519168    968.40552 
  154000    20000    621519.62     372.4772     933.0708      0.76028    951.10513   -11.775868    962.88099 
  155000    20000    621519.62    376.02591     910.0438      0.76028    956.52847   -15.526206    972.05467 
  156000    20000    621519.62    376.52265    1075.4646      0.76028    980.10414    6.7653666    973.33877 
  157000    20000    621519.62     371.3931    1214.3298      0.76028    944.39928   -15.679244    960.07852 
  158000    20000    621519.62    371.27256    977.18593      0.76028    950.81644    -8.950469    959.76691 
  159000    20000    621519.62     370.5551    788.09253      0.76028    946.90017   -11.012043    957.91221 
  160000    20000    621519.62    373.81883    997.76756      0.76028    965.19205   -1.1571637    966.34921 
  161000    20000    621519.62    373.17256    691.36577      0.76028    942.67383   -22.004714    964.67854 
  162000    20000    621519.62    371.59849    1036.9263      0.76028     958.8751   -1.7343666    960.60947 
  163000    20000    621519.62    371.95781    841.30861      0.76028    960.65062   -0.8877208    961.53834 
  164000    20000    621519.62    375.14503    1053.3254      0.76028    960.16256   -9.6149681    969.77752 
  165000    20000    621519.62    380.10968    1152.8388      0.76028     969.2604   -13.351113    982.61152 
  166000    20000    621519.62    373.94748    1394.9265      0.76028     962.3396   -4.3421781    966.68178 
  167000    20000    621519.62    374.53572    1101.6157      0.76028    958.64665   -9.5557708    968.20242 
  168000    20000    621519.62    371.82966    1148.6251      0.76028     959.5699   -1.6371473    961.20705 
  169000    20000    621519.62    373.04701      1151.07      0.76028    959.16258   -5.1914109    964.35399 
  170000    20000    621519.62    379.00348     1142.668      0.76028    966.21356   -13.538337     979.7519 
  171000    20000    621519.62    372.58786    935.56156      0.76028    958.85319   -4.3138604    963.16705 
  172000    20000    621519.62    376.60333    987.51242      0.76028    964.92918   -8.6181546    973.54733 
  173000    20000    621519.62    372.61418    1103.3816      0.76028    952.36498   -10.870107    963.23509 
  174000    20000    621519.62    374.06496    1088.3949      0.76028    962.91917   -4.0662864    966.98546 
  175000    20000    621519.62    378.63678    965.93066      0.76028    974.45626   -4.3477001    978.80396 
  176000    20000    621519.62    369.52019    961.80605      0.76028    941.11112    -14.12579    955.23691 
  177000    20000    621519.62    375.58033    991.55917      0.76028    969.06254   -1.8402761    970.90282 
  178000    20000    621519.62    373.17015    936.40112      0.76028    957.43928   -7.2330279    964.67231 
  179000    20000    621519.62    372.57548    880.57545      0.76028    943.89592   -19.239122    963.13504 
  180000    20000    621519.62      371.711    852.99365      0.76028    955.47237   -5.4279489    960.90032 
  181000    20000    621519.62    374.38022    839.56891      0.76028    959.59839   -8.2020499    967.80044 
  182000    20000    621519.62    373.90648    1146.9119      0.76028     956.7363   -9.8394705    966.57577 
  183000    20000    621519.62    371.80309    955.19125      0.76028    951.94089   -9.1974693    961.13836 
  184000    20000    621519.62    375.05714    953.27796      0.76028    964.48174   -5.0685986    969.55034 
  185000    20000    621519.62     372.2677    935.15979      0.76028    941.98384   -20.355584    962.33942 
  186000    20000    621519.62    374.14427    966.78393      0.76028    952.18613   -15.004348    967.19048 
  187000    20000    621519.62    372.94018    932.04925      0.76028    959.96794    -4.109871    964.07782 
  188000    20000    621519.62    375.37129    1286.6782      0.76028    960.45071   -9.9117262    970.36243 
  189000    20000    621519.62     373.7212    886.91815      0.76028    962.60556   -3.4912567    966.09682 
  190000    20000    621519.62     372.1184    820.40625      0.76028    963.06548    1.1120231    961.95346 
  191000    20000    621519.62    369.23892    979.63139      0.76028    948.73882   -5.7709835    954.50981 
  192000    20000    621519.62    371.21647    1159.3987      0.76028    957.23304   -2.3888558     959.6219 
  193000    20000    621519.62    375.44567    789.45587      0.76028    962.20758   -8.3471204     970.5547 
  194000    20000    621519.62    371.01759     1317.264      0.76028    946.17108    -12.93671    959.10779 
  195000    20000    621519.62    373.72229    1260.7601      0.76028    957.36677   -8.7328683    966.09963 
  196000    20000    621519.62    373.99579    1000.1218      0.76028    963.45928   -3.3473866    966.80667 
  197000    20000    621519.62    373.38128    927.89915      0.76028    960.58798   -4.6301265    965.21811 
  198000    20000    621519.62     370.6031     956.7261      0.76028     957.6865  -0.34979773     958.0363 
  199000    20000    621519.62    374.67772    741.69493      0.76028    955.76464   -12.804851     968.5695 
  200000    20000    621519.62    377.32155    1053.6649      0.76028    972.11693   -3.2870651      975.404 
  201000    20000    621519.62    368.41273    957.69292      0.76028     939.6176   -12.756436    952.37403 
  202000    20000    621519.62    374.06405    1103.6533      0.76028    966.20934  -0.77378176    966.98312 
  203000    20000    621519.62    371.14547    1080.3715      0.76028     951.3278   -8.1105808    959.43838 
  204000    20000    621519.62    369.47936    954.94022      0.76028    931.87049   -23.260864    955.13135 
  205000    20000    621519.62    375.18026     1198.633      0.76028     962.5471    -7.321501     969.8686 
  206000    20000    621519.62    371.62049     1179.479      0.76028    957.98566   -2.6806678    960.66633 
  207000    20000    621519.62    374.49094    945.86515      0.76028    968.62989   0.54323429    968.08666 
  208000    20000    621519.62    370.63508      774.534      0.76028    953.26731   -4.8516738    958.11898 
  209000    20000    621519.62    376.34612    1120.3123      0.76028    964.00436   -8.8780628    972.88242 
  210000    20000    621519.62    375.61356     1160.817      0.76028    961.36617   -9.6225516    970.98873 
  211000    20000    621519.62    373.06842    1147.2154      0.76028    964.38963 -0.019701604    964.40933 
  212000    20000    621519.62    371.75854    1024.7688      0.76028    963.93334    2.9101327     961.0232 
  213000    20000    621519.62    372.67282     935.2953      0.76028    949.80151   -13.585171    963.38669 
  214000    20000    621519.62    373.50037    591.64281      0.76028      957.429   -8.0969631    965.52596 
  215000    20000    621519.62    375.44074    824.02903      0.76028    961.67079   -8.8711664    970.54196 
  216000    20000    621519.62     374.5762     1115.251      0.76028    960.43739   -7.8696821    968.30707 
  217000    20000    621519.62    373.23302    1130.4102      0.76028    954.47617   -10.358669    964.83483 
  218000    20000    621519.62    374.36158    1125.2427      0.76028    956.57008   -11.182175    967.75226 
  219000    20000    621519.62    372.13295    788.49634      0.76028    950.08173   -11.909344    961.99107 
  220000    20000    621519.62    373.03729    920.46128      0.76028    953.55967   -10.769203    964.32887 
  221000    20000    621519.62     370.9649    1120.5202      0.76028    951.09363   -7.8779496    958.97158 
  222000    20000    621519.62    371.57518     795.0497      0.76028    961.89653    1.3473311     960.5492 
  223000    20000    621519.62     374.2689    1083.9434      0.76028    953.21143   -14.301246    967.51268 
  224000    20000    621519.62    371.85555    1030.9232      0.76028     957.7942   -3.4797867    961.27399 
  225000    20000    621519.62    371.72743    1075.5054      0.76028    963.91721     2.974428    960.94278 
  226000    20000    621519.62    372.57375     1080.695      0.76028    953.03052   -10.100053    963.13058 
  227000    20000    621519.62    376.08659    929.40962      0.76028    963.92535   -8.2861741    972.21152 
  228000    20000    621519.62    373.38156    977.37512      0.76028     952.2175   -13.001338    965.21883 
  229000    20000    621519.62    377.45255    1140.7338      0.76028    969.18329    -6.559337    975.74262 
  230000    20000    621519.62    372.06296    977.29792      0.76028    958.22886   -3.5812971    961.81016 
  231000    20000    621519.62     373.8455    800.12979      0.76028    941.44438   -24.973773    966.41815 
  232000    20000    621519.62    376.80917    1207.6198      0.76028    971.09246    -2.986989    974.07945 
  233000    20000    621519.62    370.83435    1029.1417      0.76028    947.77457   -10.859542    958.63411 
  234000    20000    621519.62    374.67968    1483.6529      0.76028    964.03388    -4.540692    968.57457 
  235000    20000    621519.62    372.20718    1005.3955      0.76028    966.84471    4.6617411    962.18297 
  236000    20000    621519.62    370.33676    1052.3157      0.76028    943.49689   -13.850896    957.34779 
  237000    20000    621519.62    371.35705    1033.0479      0.76028     951.3023   -8.6830274    959.98533 
  238000    20000    621519.62    375.40794    1086.7407      0.76028    956.70072    -13.75645    970.45717 
  239000    20000    621519.62     371.7972    889.44998      0.76028    959.24147   -1.8816554    961.12313 
  240000    20000    621519.62    373.89311    1017.1713      0.76028    952.31758    -14.22364    966.54122 
  241000    20000    621519.62    372.15375    943.83729      0.76028    958.80185   -3.2430047    962.04485 
  242000    20000    621519.62    375.57897    866.52626      0.76028    963.03425   -7.8650483    970.89929 
  243000    20000    621519.62    371.46891    1238.4189      0.76028    958.95849   -1.3159972    960.27449 
  244000    20000    621519.62    373.04449    844.59972      0.76028    951.71513   -12.632344    964.34747 
  245000    20000    621519.62    372.77523    1252.2446      0.76028     961.8217   -1.8297184    963.65142 
  246000    20000    621519.62    372.90399    798.69104      0.76028    954.92891   -9.0553706    963.98428 
  247000    20000    621519.62    369.76885    890.53515      0.76028    948.71842   -7.1612993    955.87971 
  248000    20000    621519.62    371.44552    948.66408      0.76028    955.73713   -4.4768916    960.21402 
  249000    20000    621519.62      375.405    861.09277      0.76028    972.38777     1.938211    970.44956 
  250000    20000    621519.62    372.06933    921.59011      0.76028    955.95373   -5.8728808    961.82661 
  251000    20000    621519.62    372.18892    1196.1459      0.76028    950.44397   -11.691783    962.13575 
  252000    20000    621519.62    373.70307    937.54615      0.76028    974.39563    8.3456736    966.04996 
  253000    20000    621519.62    374.02845     818.6658      0.76028     960.4055   -6.4855926    966.89109 
  254000    20000    621519.62    375.34087    1124.3414      0.76028    967.60997   -2.6738286     970.2838 
  255000    20000    621519.62    373.76579    901.17053      0.76028    966.68997   0.47786533     966.2121 
  256000    20000    621519.62     374.7541     1099.248      0.76028    964.72313   -4.0438249    968.76696 
  257000    20000    621519.62    370.01813    441.41868      0.76028     955.2687   -1.2554187    956.52412 
  258000    20000    621519.62    371.24368    712.54383      0.76028    950.58225   -9.1100106    959.69226 
  259000    20000    621519.62    372.74488    885.56655      0.76028    954.07571   -9.4972459    963.57295 
  260000    20000    621519.62    374.22352    816.29505      0.76028    960.01503   -7.3803171    967.39535 
  261000    20000    621519.62    369.88963     936.6653      0.76028    954.54113   -1.6508138    956.19194 
  262000    20000    621519.62    375.99918    999.69609      0.76028    966.34817     -5.63741    971.98558 
  263000    20000    621519.62    372.45821    1071.7316      0.76028    963.67344   0.84155279    962.83189 
  264000    20000    621519.62    371.02814    1118.5492      0.76028    954.47927   -4.6557881    959.13506 
  265000    20000    621519.62    373.03954    1097.6944      0.76028    953.60038   -10.734294    964.33468 
  266000    20000    621519.62    372.45371     937.4189      0.76028    972.72421    9.9039445    962.82026 
  267000    20000    621519.62    373.22924    993.02441      0.76028    956.58854   -8.2365389    964.82507 
  268000    20000    621519.62    376.06222    842.21423      0.76028    965.24738   -6.9011573    972.14854 
  269000    20000    621519.62    374.84752    847.58246      0.76028    965.69771    -3.310743    969.00845 
  270000    20000    621519.62     373.5123    1045.0221      0.76028    956.18083   -9.3759679     965.5568 
  271000    20000    621519.62    373.98763    879.48716      0.76028    958.35111   -8.4344497    966.78556 
  272000    20000    621519.62    375.04474     1167.228      0.76028    960.98543   -8.5328396    969.51827 
  273000    20000    621519.62    372.81319     851.9848      0.76028    958.21511   -5.5344298    963.74954 
  274000    20000    621519.62    371.18101     1018.833      0.76028    956.65668    -2.873568    959.53025 
  275000    20000    621519.62    373.62631    1102.2228      0.76028    963.12193   -2.7295826    965.85151 
  276000    20000    621519.62    373.53739    1202.2644      0.76028    963.77515   -1.8465155    965.62166 
  277000    20000    621519.62    371.49881    1080.7666      0.76028    954.56478   -5.7869933    960.35177 
  278000    20000    621519.62    373.15108    1065.6854      0.76028    958.65368   -5.9693515    964.62303 
  279000    20000    621519.62    374.76365    990.47758      0.76028    959.73982    -9.051807    968.79163 
  280000    20000    621519.62    372.08347    1028.0184      0.76028    954.31444   -7.5487202    961.86316 
  281000    20000    621519.62     372.7641    920.55676      0.76028    964.02083   0.39817817    963.62265 
  282000    20000    621519.62    379.81612    888.43399      0.76028    969.62902   -12.223632    981.85265 
  283000    20000    621519.62     370.4091    1055.5546      0.76028    950.24285   -7.2919605    957.53481 
  284000    20000    621519.62    372.51765    1124.2161      0.76028    953.34836   -9.6372019    962.98557 
  285000    20000    621519.62    372.52935    1118.5791      0.76028     953.2295   -9.7863129    963.01581 
  286000    20000    621519.62    374.84035    1097.9422      0.76028    963.85701   -5.1328989    968.98991 
  287000    20000    621519.62     374.0268    1089.1837      0.76028     968.0546    1.1677763    966.88682 
  288000    20000    621519.62    372.61104    1295.4565      0.76028     951.0149    -12.21208    963.22698 
  289000    20000    621519.62    373.98756    914.29062      0.76028    965.48962   -1.2957553    966.78537 
  290000    20000    621519.62      374.659    1223.4651      0.76028    964.62754   -3.8935607     968.5211 
  291000    20000    621519.62    370.97245    1049.8741      0.76028    950.86964   -8.1214564    958.99109 
  292000    20000    621519.62    377.85643     1080.409      0.76028    968.88658   -7.9001132    976.78669 
  293000    20000    621519.62    370.67301    780.57787      0.76028    948.36842   -9.8485954    958.21701 
  294000    20000    621519.62    373.72279    1107.3251      0.76028     950.1986   -15.902327    966.10093 
  295000    20000    621519.62     368.5753    998.08016      0.76028     942.0345   -10.759784    952.79429 
  296000    20000    621519.62    374.59199    783.16188      0.76028    960.39635   -7.9515206    968.34787 
  297000    20000    621519.62     374.1487    1050.2182      0.76028    969.17897    1.9770374    967.20193 
  298000    20000    621519.62    370.03934    970.84275      0.76028    946.61835   -9.9605864    956.57893 
  299000    20000    621519.62    371.92213     886.5123      0.76028    960.42805   -1.0180531     961.4461 
  300000    20000    621519.62    374.74701    883.33547      0.76028    965.09028   -3.6583422    968.74863 
  301000    20000    621519.62    374.76396     984.2899      0.76028     974.3532    5.5607709    968.79243 
  302000    20000    621519.62    373.80003    980.85677      0.76028    949.62011   -16.680507    966.30062 
  303000    20000    621519.62    371.79906    1112.7948      0.76028    950.84506   -10.282893    961.12795 
  304000    20000    621519.62    375.22155    1007.2449      0.76028    965.97012   -4.0052132    969.97533 
  305000    20000    621519.62    372.94594     815.2247      0.76028    951.52846   -12.564266    964.09273 
  306000    20000    621519.62    373.41796    850.97449      0.76028    957.87296   -7.4399584    965.31292 
  307000    20000    621519.62    371.20888     966.9906      0.76028    952.08211   -7.5201836     959.6023 
  308000    20000    621519.62    374.29459    837.36376      0.76028    955.57691   -12.002168    967.57908 
  309000    20000    621519.62    373.79996    1301.4537      0.76028    952.38791   -13.912521    966.30043 
  310000    20000    621519.62    375.95189     1260.884      0.76028    969.64703   -2.2162827    971.86331 
  311000    20000    621519.62    377.31902    1061.7238      0.76028    968.89181   -6.5056456    975.39746 
  312000    20000    621519.62    376.90683    930.35405      0.76028    971.73495   -2.5969586    974.33191 
  313000    20000    621519.62    374.06497    1056.2959      0.76028    946.23638   -20.749125    966.98551 
  314000    20000    621519.62    371.37554    1157.4392      0.76028    956.61287   -3.4202524    960.03312 
  315000    20000    621519.62    373.15768    1220.8623      0.76028    953.98825   -10.651827    964.64008 
  316000    20000    621519.62    371.42769    1077.4318      0.76028    956.46871   -3.6992218    960.16793 
  317000    20000    621519.62     370.9723    818.34969      0.76028    950.91166   -8.0790601    958.99072 
  318000    20000    621519.62    373.21041    899.12511      0.76028    959.35271   -5.4236912     964.7764 
  319000    20000    621519.62    375.04096    935.55469      0.76028    965.28991   -4.2185783    969.50849 
  320000    20000    621519.62    376.33641    984.80571      0.76028    967.45221   -5.4051158    972.85733 
  321000    20000    621519.62    370.66349    900.71794      0.76028    949.77361   -8.4188155    958.19242 
  322000    20000    621519.62    370.59174     754.7376      0.76028    945.55227   -12.454658    958.00693 
  323000    20000    621519.62    374.18452    1004.0274      0.76028    970.57071    3.2761746    967.29453 
  324000    20000    621519.62    376.28424    1294.0659      0.76028    967.16684   -5.5556315    972.72247 
  325000    20000    621519.62    371.48791    917.75072      0.76028    954.59072   -5.7328954    960.32361 
  326000    20000    621519.62    374.20871    953.32975      0.76028    958.60094   -8.7561178    967.35706 
  327000    20000    621519.62    374.47027    1051.7371      0.76028    958.78719   -9.2460298    968.03322 
  328000    20000    621519.62    371.96028    1229.2674      0.76028    955.92203   -5.6226981    961.54473 
  329000    20000    621519.62    374.53094    1051.0859      0.76028    962.52528   -5.6647732    968.19005 
  330000    20000    621519.62    374.44111     953.6215      0.76028    965.74274   -2.2151124    967.95785 
  331000    20000    621519.62    370.77743    1198.3077      0.76028    949.70379   -8.7831672    958.48696 
  332000    20000    621519.62     376.4312    1163.1361      0.76028    966.30047   -6.8019121    973.10238 
  333000    20000    621519.62    369.59058    1118.5123      0.76028    948.45421   -6.9646656    955.41887 
  334000    20000    621519.62    379.65848    1241.9891      0.76028    976.45133   -4.9937988    981.44513 
  335000    20000    621519.62    374.17856    1385.8616      0.76028    958.48553   -8.7936013    967.27913 
  336000    20000    621519.62    371.11253    906.23289      0.76028    949.60575   -9.7474826    959.35323 
  337000    20000    621519.62    373.84177    956.31244      0.76028    964.43328   -1.9752226    966.40851 
  338000    20000    621519.62    375.34525    1061.2965      0.76028    969.73949  -0.55562227    970.29512 
  339000    20000    621519.62    371.85711    936.19428      0.76028    954.42778   -6.8502297    961.27801 
  340000    20000    621519.62    373.73992    1105.6988      0.76028    962.32273   -3.8224812    966.14521 
  341000    20000    621519.62    373.35549    911.45973      0.76028    956.26706   -8.8843844    965.15144 
  342000    20000    621519.62    372.05354    1310.3534      0.76028    958.77328   -3.0125256     961.7858 
  343000    20000    621519.62    370.80549    939.24127      0.76028    944.31481   -14.244683    958.55949 
  344000    20000    621519.62    370.73953    856.41599      0.76028    950.29196   -8.0970323      958.389 
  345000    20000    621519.62    374.41854    1222.5002      0.76028    976.18104    8.2815294    967.89951 
  346000    20000    621519.62    369.17008    1026.1526      0.76028    940.79675   -13.535083    954.33183 
  347000    20000    621519.62    370.93513    959.98364      0.76028    953.19576   -5.6988718    958.89463 
  348000    20000    621519.62    375.32013    1263.3172      0.76028    966.99574   -3.2344267    970.23017 
  349000    20000    621519.62    369.75296    847.12077      0.76028    944.23763   -11.600988    955.83862 
  350000    20000    621519.62    371.79493    1275.4988      0.76028    950.54759   -10.569667    961.11726 
  351000    20000    621519.62    375.62429    707.66122      0.76028    962.64742    -8.369037    971.01646 
  352000    20000    621519.62    377.06911    1086.4573      0.76028    966.77049   -7.9809194    974.75141 
  353000    20000    621519.62    373.70439    835.73886      0.76028    952.21495   -13.838413    966.05336 
  354000    20000    621519.62    372.94829    1020.7215      0.76028    947.89412    -16.20467    964.09879 
  355000    20000    621519.62    373.16978    1113.2456      0.76028    954.70382   -9.9675493    964.67137 
  356000    20000    621519.62    371.91615    1226.8913      0.76028    956.44499   -4.9856538    961.43065 
  357000    20000    621519.62    370.96542    763.37365      0.76028    955.67682    -3.296106    958.97293 
  358000    20000    621519.62    371.89761     918.3519      0.76028    961.57134   0.18863179    961.38271 
  359000    20000    621519.62    371.35843    1054.1708      0.76028    954.62809   -5.3607934    959.98888 
  360000    20000    621519.62    374.52092    1129.3932      0.76028    967.09169   -1.0724631    968.16415 
  361000    20000    621519.62    372.95277    970.38698      0.76028     955.1012   -9.0091673    964.11037 
  362000    20000    621519.62    369.94487    1131.8827      0.76028    952.48568   -3.8490422    956.33472 
  363000    20000    621519.62      370.507    1161.0229      0.76028    944.28409   -13.503782    957.78787 
  364000    20000    621519.62    375.63849    698.19407      0.76028    966.28549   -4.7676847    971.05317 
  365000    20000    621519.62    375.68938    905.58024      0.76028    971.26698    0.0822706    971.18471 
  366000    20000    621519.62    370.56771    1056.7296      0.76028    954.91984   -3.0249702    957.94481 
  367000    20000    621519.62    369.87182    1071.3663      0.76028    945.45721   -10.688678    956.14589 
  368000    20000    621519.62    371.83021    981.04888      0.76028    953.41483   -7.7936446    961.20847 
  369000    20000    621519.62    373.84512    1253.7365      0.76028    967.41723    1.0000696    966.41716 
  370000    20000    621519.62    368.47386    954.51227      0.76028    945.78479   -6.7472769    952.53207 
  371000    20000    621519.62     371.6931    1020.8727      0.76028    967.11165    6.2576256    960.85403 
  372000    20000    621519.62    374.64101    1266.5922      0.76028    966.13368   -2.3409066    968.47459 
  373000    20000    621519.62     367.9585    903.99979      0.76028     950.2709  -0.92890942    951.19981 
  374000    20000    621519.62    369.35932    940.23408      0.76028    945.13033   -9.6907177    954.82104 
  375000    20000    621519.62    372.46302    1108.1066      0.76028    955.96523   -6.8791125    962.84434 
  376000    20000    621519.62    372.30806    984.64151      0.76028    958.78075    -3.662992    962.44375 
  377000    20000    621519.62    369.02967    1074.3897      0.76028    955.70882    1.7399564    953.96886 
  378000    20000    621519.62    371.66956    1031.1904      0.76028    957.55387    -3.239306    960.79318 
  379000    20000    621519.62    375.51199    1023.1057      0.76028    973.53793    2.8117957    970.72614 
  380000    20000    621519.62    375.08506    972.16546      0.76028    970.39742   0.77492184     969.6225 
  381000    20000    621519.62    374.43211    1031.8396      0.76028    953.06672   -14.867852    967.93457 
  382000    20000    621519.62    373.98963    1174.2861      0.76028    958.48003   -8.3107081    966.79074 
  383000    20000    621519.62    375.88383    865.78377      0.76028    971.22789  -0.45949796    971.68738 
  384000    20000    621519.62      371.545    714.63609      0.76028    941.40544   -19.065751     960.4712 
  385000    20000    621519.62    372.81519    864.59377      0.76028    966.01408    2.2593462    963.75473 
  386000    20000    621519.62    374.52633    1057.7991      0.76028    954.96336   -13.214778    968.17813 
  387000    20000    621519.62    374.40528    781.09343      0.76028    972.31294    4.4477187    967.86522 
  388000    20000    621519.62    374.55481    811.35317      0.76028    961.38395   -6.8678182    968.25177 
  389000    20000    621519.62    373.97221    1089.5446      0.76028    962.89898   -3.8467158     966.7457 
  390000    20000    621519.62    371.38778    827.51928      0.76028    958.32926    -1.735506    960.06477 
  391000    20000    621519.62    376.02558     982.6247      0.76028     959.9962   -12.057616    972.05382 
  392000    20000    621519.62    373.75593    807.40838      0.76028    963.26791   -2.9186855    966.18659 
  393000    20000    621519.62    370.13229    1309.6278      0.76028     957.0529   0.23368629    956.81921 
  394000    20000    621519.62    374.05837    1125.1771      0.76028    967.85162   0.88319582    966.96843 
  395000    20000    621519.62    374.29291    909.66588      0.76028    961.02632   -6.5484203    967.57474 
  396000    20000    621519.62    373.81619    1029.6843      0.76028    971.02496    4.6825845    966.34237 
  397000    20000    621519.62    371.92776    950.71714      0.76028    952.58413   -8.8765253    961.46065 
  398000    20000    621519.62    372.52012    967.97432      0.76028    964.29324    1.3012818    962.99195 
  399000    20000    621519.62    374.61646    1004.9917      0.76028    960.31454   -8.0966076    968.41114 
  400000    20000    621519.62    373.76201    1233.3442      0.76028    970.60207    4.3997538    966.20232 
  401000    20000    621519.62    375.15815    1108.7063      0.76028    974.74801    4.9365593    969.81145 
  402000    20000    621519.62    372.00376    1005.5653      0.76028    946.59885   -15.058259    961.65711 
  403000    20000    621519.62    373.40536    1024.7338      0.76028    950.49985   -14.780517    965.28036 
  404000    20000    621519.62    371.98225    1047.2637      0.76028    959.06747   -2.5340433    961.60151 
  405000    20000    621519.62    375.79655    785.99015      0.76028    967.73502   -3.7267528    971.46177 
  406000    20000    621519.62    374.60977    739.31986      0.76028    967.97324  -0.42059645    968.39383 
  407000    20000    621519.62    370.54571    1042.6497      0.76028    946.26172   -11.626243    957.88796 
  408000    20000    621519.62    376.98808    931.49496      0.76028    975.61012    1.0681769    974.54194 
  409000    20000    621519.62    372.31302    1027.6062      0.76028    964.73384    2.2772622    962.45657 
  410000    20000    621519.62     374.3228     1051.033      0.76028    959.10362   -8.5483919    967.65201 
  411000    20000    621519.62     366.2458    797.28332      0.76028    932.96393   -13.808433    946.77236 
  412000    20000    621519.62    372.33601    1257.2212      0.76028    963.82774    1.3117335    962.51601 
  413000    20000    621519.62    371.35251     1004.341      0.76028    949.15489   -10.818686    959.97357 
  414000    20000    621519.62    378.89143    1075.7626      0.76028    973.85999   -5.6022591    979.46225 
  415000    20000    621519.62    372.23544    1153.2659      0.76028    942.00091   -20.255105    962.25601 
  416000    20000    621519.62     370.9883    862.66538      0.76028    956.53672   -2.4953442    959.03206 
  417000    20000    621519.62    374.06557    1167.7065      0.76028    964.87213   -2.1149067    966.98704 
  418000    20000    621519.62    368.88232    1213.2348      0.76028    949.00906   -4.5788989    953.58796 
  419000    20000    621519.62    374.24887    1052.4279      0.76028    957.43401   -10.026884    967.46089 
  420000    20000    621519.62    372.40869    770.24968      0.76028    954.00254   -8.7013505    962.70389 
  421000    20000    621519.62    375.65719    930.61928      0.76028    955.20996   -15.891533    971.10149 
  422000    20000    621519.62    375.95603    1089.0546      0.76028    951.42727   -20.446754    971.87402 
  423000    20000    621519.62    374.82302    1104.7704      0.76028    947.05252   -21.892584    968.94511 
  424000    20000    621519.62    372.89161     1002.462      0.76028    951.13906   -12.813217    963.95228 
  425000    20000    621519.62    373.49564     951.8997      0.76028    958.31374   -7.2000059    965.51375 
  426000    20000    621519.62     371.3919    896.34926      0.76028    958.02909    -2.046325    960.07542 
  427000    20000    621519.62    369.71461    1006.8639      0.76028    950.53081   -5.2086867     955.7395 
  428000    20000    621519.62    374.62325    1304.6319      0.76028    959.55028    -8.878404    968.42869 
  429000    20000    621519.62    374.55344    1336.9368      0.76028    962.08755   -6.1606705    968.24822 
  430000    20000    621519.62     374.8146    932.95558      0.76028    961.35663   -7.5667088    968.92334 
  431000    20000    621519.62    374.11124    947.52699      0.76028    953.48896   -13.616135    967.10509 
  432000    20000    621519.62    373.53511    1190.0713      0.76028    947.57572   -18.040053    965.61578 
  433000    20000    621519.62    373.12584    907.40837      0.76028    946.90435   -17.653436    964.55778 
  434000    20000    621519.62    376.13188    1060.5852      0.76028    956.50054   -15.828069    972.32861 
  435000    20000    621519.62    374.92178    830.96359      0.76028    962.95747   -6.2429452    969.20042 
  436000    20000    621519.62     370.8992    944.79521      0.76028    946.56335   -12.238388    958.80174 
  437000    20000    621519.62    370.41383    881.92505      0.76028    955.31892   -2.2281197    957.54704 
  438000    20000    621519.62    373.70145    971.24562      0.76028    957.51253   -8.5332371    966.04577 
  439000    20000    621519.62    375.45733    1128.3046      0.76028    970.78978   0.20494045    970.58484 
  440000    20000    621519.62    369.92182    808.61226      0.76028    952.82035   -3.4548072    956.27516 
  441000    20000    621519.62    373.40444    1098.7577      0.76028    955.23036   -10.047617    965.27797 
  442000    20000    621519.62    368.70548    995.81205      0.76028      943.823   -9.3078186    953.13082 
  443000    20000    621519.62    373.51938    901.38274      0.76028    950.74359   -14.831506     965.5751 
  444000    20000    621519.62    372.41388    953.56138      0.76028     951.5426     -11.1747     962.7173 
  445000    20000    621519.62    372.43047    972.08792      0.76028    948.51933   -14.240872     962.7602 
  446000    20000    621519.62    372.84723    1048.3519      0.76028    946.08455   -17.753012    963.83756 
  447000    20000    621519.62    374.74785    953.64336      0.76028    963.04618   -5.7046065    968.75079 
  448000    20000    621519.62    374.20558    1052.0549      0.76028    966.17494   -1.1740276    967.34897 
  449000    20000    621519.62    371.19714    1155.9399      0.76028    942.00193   -17.570018    959.57194 
  450000    20000    621519.62    373.17253    940.17767      0.76028    959.91161   -4.7668613    964.67847 
  451000    20000    621519.62    374.23783    903.56857      0.76028    966.60837  -0.82398953    967.43236 
  452000    20000    621519.62    374.91233    947.52127      0.76028    960.45902   -8.7169529    969.17597 
  453000    20000    621519.62    369.77718    959.37121      0.76028    937.37858   -18.522662    955.90124 
  454000    20000    621519.62    374.65419    1276.3609      0.76028    954.09496   -14.413708    968.50867 
  455000    20000    621519.62    370.12771    1274.4018      0.76028    945.69431   -11.113069    956.80738 
  456000    20000    621519.62    374.08319     754.3264      0.76028     951.6725   -15.360086    967.03258 
  457000    20000    621519.62    375.04599    1009.8343      0.76028    953.37523   -16.146262     969.5215 
  458000    20000    621519.62    372.08259    1032.1526      0.76028    953.10668   -8.7542226     961.8609 
  459000    20000    621519.62    370.04146     961.0546      0.76028    940.22896   -16.355475    956.58444 
  460000    20000    621519.62    372.58093    1121.0997      0.76028     959.9455   -3.2036334    963.14913 
  461000    20000    621519.62    373.22157    945.13169      0.76028    949.71163   -15.093612    964.80524 
  462000    20000    621519.62    374.89994    898.30775      0.76028     944.9519   -24.192064    969.14397 
  463000    20000    621519.62    373.68456    941.00962      0.76028     961.6551   -4.3470006     966.0021 
  464000    20000    621519.62    373.71538    1117.2783      0.76028    952.09075   -13.991041    966.08179 
  465000    20000    621519.62    372.06514    931.72229      0.76028    952.89587   -8.9199168    961.81579 
  466000    20000    621519.62    370.82998    1167.6556      0.76028    943.15069    -15.47211     958.6228 
  467000    20000    621519.62    373.88273    1194.7944      0.76028    955.86979   -10.644583    966.51438 
  468000    20000    621519.62    372.11175    825.43086      0.76028    951.95475   -9.9815325    961.93628 
  469000    20000    621519.62    367.65335    1028.7823      0.76028    948.57465   -1.8363268    950.41098 
  470000    20000    621519.62    372.22789    988.37524      0.76028    968.45012    6.2136273     962.2365 
  471000    20000    621519.62    372.16297    1150.0338      0.76028    957.30197   -4.7666983    962.06867 
  472000    20000    621519.62    373.27075    1066.5985      0.76028    958.39513   -6.5372491    964.93238 
  473000    20000    621519.62    372.94778    1078.8586      0.76028    959.03199   -5.0654797    964.09747 
  474000    20000    621519.62    375.18709    1179.4707      0.76028    963.62534   -6.2609309    969.88627 
  475000    20000    621519.62    372.37462    762.71008      0.76028    960.20419   -2.4116276    962.61582 
  476000    20000    621519.62    373.72053    769.14608      0.76028    951.46283   -14.632252    966.09508 
  477000    20000    621519.62    374.60151     1086.902      0.76028    968.89877   0.52628528    968.37248 
  478000    20000    621519.62    373.86567    1202.5488      0.76028    965.35286    -1.117423    966.47029 
  479000    20000    621519.62    372.08799    1096.0198      0.76028    955.95631   -5.9185591    961.87487 
  480000    20000    621519.62    368.09473    798.20712      0.76028      937.729   -13.822979    951.55198 
  481000    20000    621519.62    375.13105    1091.1147      0.76028    972.35723    2.6158527    969.74138 
  482000    20000    621519.62     372.9072     850.0246      0.76028    957.30167   -6.6908954    963.99257 
  483000    20000    621519.62    373.32804    796.28012      0.76028    952.87652   -12.203956    965.08047 
  484000    20000    621519.62    374.02699    1213.5526      0.76028    958.99721   -7.8901039    966.88731 
  485000    20000    621519.62    369.27827    956.92837      0.76028    944.79509   -9.8164324    954.61152 
  486000    20000    621519.62     377.1666    873.98954      0.76028     963.1733   -11.830125    975.00342 
  487000    20000    621519.62    374.39728    863.16839      0.76028     956.4839   -11.360636    967.84454 
  488000    20000    621519.62    373.70607    1206.1136      0.76028    959.54195   -6.5157723    966.05772 
  489000    20000    621519.62    372.40353    913.82634      0.76028     951.3775   -11.313052    962.69055 
  490000    20000    621519.62    373.86578    833.99656      0.76028    951.90055   -14.570033    966.47058 
  491000    20000    621519.62    371.99757    1008.4815      0.76028    967.73392    6.0928166     961.6411 
  492000    20000    621519.62    371.29393    853.86582      0.76028    955.30337   -4.5187745    959.82215 
  493000    20000    621519.62    370.93578    591.68995      0.76028      955.135   -3.7613108    958.89631 
  494000    20000    621519.62    372.77642    1003.6883      0.76028    956.32786   -7.3266396     963.6545 
  495000    20000    621519.62    376.66235    916.33341      0.76028     962.4817   -11.218225    973.69992 
  496000    20000    621519.62    374.74081    1008.5389      0.76028    959.83691   -8.8956829    968.73259 
  497000    20000    621519.62     367.0126    1064.3516      0.76028    948.11512  -0.63948499     948.7546 
  498000    20000    621519.62    372.83682    1011.5847      0.76028    962.08349   -1.7271342    963.81063 
  499000    20000    621519.62    372.22154     805.6838      0.76028    959.49671   -2.7233721    962.22008 
  500000    20000    621519.62     369.3959    929.86595      0.76028     952.1696   -2.7460122    954.91562 
  501000    20000    621519.62    370.64161     1091.738      0.76028    941.20816     -16.9277    958.13586 
  502000    20000    621519.62    377.94858    738.48377      0.76028    970.19932   -6.8255911    977.02491 
  503000    20000    621519.62    372.89315    898.55111      0.76028    957.87061   -6.0856457    963.95625 
  504000    20000    621519.62    369.90234    1079.1381      0.76028    950.97291   -5.2518725    956.22479 
  505000    20000    621519.62    373.80354    968.44939      0.76028    959.22902   -7.0806733    966.30969 
  506000    20000    621519.62    375.52582    1115.1229      0.76028    959.25676   -11.505139     970.7619 
  507000    20000    621519.62    370.97861    1055.6606      0.76028    952.94073    -6.066303    959.00703 
  508000    20000    621519.62    371.11013     939.3525      0.76028    953.11934   -6.2276768    959.34701 
  509000    20000    621519.62    375.41541    957.26005      0.76028    958.55171   -11.924777    970.47649 
  510000    20000    621519.62    371.91289    989.17965      0.76028    944.94472   -16.477492    961.42222 
  511000    20000    621519.62    372.36093    1011.8813      0.76028    956.34487   -6.2355605    962.58043 
  512000    20000    621519.62    374.82482    1078.1898      0.76028    960.77149   -8.1782813    968.94977 
  513000    20000    621519.62    374.73741    1114.3862      0.76028    958.12655   -10.597241    968.72379 
  514000    20000    621519.62    373.94659    1018.1481      0.76028    958.68173    -7.997752    966.67948 
  515000    20000    621519.62    372.44935    1064.5314      0.76028    948.37682   -14.432184    962.80901 
  516000    20000    621519.62    375.16632    1015.5845      0.76028    965.22324   -4.6093094    969.83255 
  517000    20000    621519.62    373.66459    802.29895      0.76028    949.96433   -15.986142    965.95047 
  518000    20000    621519.62    371.40413     1045.139      0.76028    951.57274   -8.5342791    960.10702 
  519000    20000    621519.62    376.89966    1133.9986      0.76028    956.17191   -18.141469    974.31338 
  520000    20000    621519.62    375.88297    1115.7263      0.76028    964.19518   -7.4899713    971.68515 
  521000    20000    621519.62     372.8665    836.50672      0.76028    946.44026   -17.447113    963.88737 
  522000    20000    621519.62    372.36244    836.49708      0.76028    957.51134   -5.0729923    962.58434 
  523000    20000    621519.62    375.85448    1101.5953      0.76028    968.20514   -3.4063623     971.6115 
  524000    20000    621519.62    373.43357    1123.3821      0.76028    959.22606   -6.1272205    965.35328 
  525000    20000    621519.62    373.41303    826.46604      0.76028    957.60123   -7.6989594    965.30019 
  526000    20000    621519.62    372.09168    969.57655      0.76028    960.10265   -1.7817323    961.88438 
  527000    20000    621519.62    375.45946    1178.8652      0.76028    961.91282   -8.6775372    970.59035 
  528000    20000    621519.62    376.32797    759.58173      0.76028    958.34911   -14.486408    972.83552 
  529000    20000    621519.62    372.77994    615.38516      0.76028    963.03052  -0.63308388     963.6636 
  530000    20000    621519.62     372.5381     1042.217      0.76028    946.64555   -16.392865    963.03841 
  531000    20000    621519.62    370.77194    1152.7228      0.76028    947.58704   -10.885739    958.47278 
  532000    20000    621519.62    373.85203     1214.898      0.76028    966.08876  -0.34627853    966.43504 
  533000    20000    621519.62    373.45346    1126.5027      0.76028     962.1689   -3.2358043     965.4047 
  534000    20000    621519.62    370.80425     969.4884      0.76028    954.62025   -3.9360448    958.55629 
  535000    20000    621519.62    371.92435    857.48817      0.76028    957.14608   -4.3057619    961.45184 
  536000    20000    621519.62    374.28484    902.64162      0.76028    958.94182   -8.6120484    967.55387 
  537000    20000    621519.62    373.97646    877.46252      0.76028    966.58383  -0.17284928    966.75668 
  538000    20000    621519.62    371.68111    1105.5428      0.76028    948.13552   -12.687509    960.82303 
  539000    20000    621519.62    373.57793    1114.7811      0.76028    963.69367   -2.0327806    965.72645 
  540000    20000    621519.62    372.89914     893.8294      0.76028    947.08444   -16.887306    963.97174 
  541000    20000    621519.62    373.56927    1052.4097      0.76028    960.30423   -5.3998547    965.70408 
  542000    20000    621519.62    373.17516    1205.7329      0.76028    964.74429  0.059010849    964.68528 
  543000    20000    621519.62     371.5034    1034.0003      0.76028    947.37497   -12.988691    960.36366 
  544000    20000    621519.62     377.1464    737.32559      0.76028    966.43622   -8.5149966    974.95122 
  545000    20000    621519.62    372.20296    832.24598      0.76028    956.66231   -5.5097538    962.17206 
  546000    20000    621519.62    370.72067    721.41684      0.76028    950.26824   -8.0720011    958.34024 
  547000    20000    621519.62    374.73898    713.03078      0.76028    965.77981   -2.9480444    968.72786 
  548000    20000    621519.62     377.3213    1058.0606      0.76028    966.46674   -8.9365978    975.40334 
  549000    20000    621519.62    369.39249     1107.926      0.76028    947.93243   -6.9743538    954.90678 
  550000    20000    621519.62    372.03168     747.5751      0.76028    947.57761   -14.151669    961.72928 
  551000    20000    621519.62    372.01301    862.47198      0.76028    942.10833   -19.572703    961.68103 
  552000    20000    621519.62    374.54972    1094.9559      0.76028    967.91801  -0.32058482     968.2386 
  553000    20000    621519.62     372.5211    873.50753      0.76028    955.74573   -7.2487473    962.99448 
  554000    20000    621519.62    373.76391    1118.9425      0.76028    956.31709   -9.8901267    966.20722 
  555000    20000    621519.62    372.60499    1205.4625      0.76028     957.7135   -5.4978425    963.21134 
  556000    20000    621519.62    369.18047    978.74286      0.76028    952.38624   -1.9724662    954.35871 
  557000    20000    621519.62    373.23708    962.09326      0.76028    959.69451   -5.1508229    964.84533 
  558000    20000    621519.62     374.8061    938.74481      0.76028    959.10186   -9.7995255    968.90138 
  559000    20000    621519.62    368.96532      1048.93      0.76028    941.27753   -12.524979    953.80251 
  560000    20000    621519.62    373.99385    668.74749      0.76028    960.20061   -6.6010454    966.80166 
  561000    20000    621519.62    378.10501    654.81947      0.76028    968.60076   -8.8285318    977.42929 
  562000    20000    621519.62    373.61775    1023.9011      0.76028    953.85025   -11.979148    965.82939 
  563000    20000    621519.62    371.46415    908.54848      0.76028    953.83998   -6.4221948    960.26218 
  564000    20000    621519.62    372.21256    1015.2631      0.76028    944.76641   -17.430468    962.19688 
  565000    20000    621519.62    373.41188    826.51023      0.76028    955.22526   -10.071949    965.29721 
  566000    20000    621519.62    371.63372    965.35249      0.76028    955.05577   -5.6447588    960.70053 
  567000    20000    621519.62    371.83446     931.2147      0.76028    949.86881   -11.350655    961.21947 
  568000    20000    621519.62    373.41028    966.23052      0.76028    962.26377   -3.0292927    965.29307 
  569000    20000    621519.62    370.77158    1132.3165      0.76028    954.37402   -4.0978301    958.47185 
  570000    20000    621519.62    371.69022     1057.638      0.76028    948.19425   -12.652346    960.84659 
[...]
21835000    20000    621519.62    375.69901    903.37171      0.76028    952.68901   -18.520599    971.20961 
21836000    20000    621519.62    373.24874    1065.7171      0.76028    948.87809   -15.997376    964.87547 
21837000    20000    621519.62    372.27548    1069.4463      0.76028    956.49105   -5.8684791    962.35953 
21838000    20000    621519.62    374.76193    819.30011      0.76028    971.44365    2.6564569    968.78719 
21839000    20000    621519.62    373.94348    879.91261      0.76028    958.84783   -7.8235933    966.67143 
21840000    20000    621519.62    371.00576     977.4636      0.76028     946.4361   -12.641125    959.07722 
21841000    20000    621519.62    371.74968    1108.0042      0.76028    943.32354    -17.67676     961.0003 
21842000    20000    621519.62    374.73365    964.37936      0.76028    950.89891   -17.815179    968.71409 
21843000    20000    621519.62    368.25302    1053.4751      0.76028    942.47221   -9.4889671    951.96118 
21844000    20000    621519.62    370.97033    1071.6952      0.76028    949.38287   -9.6027609    958.98563 
21845000    20000    621519.62    371.50332    1223.8011      0.76028    958.58133   -1.7821066    960.36343 
21846000    20000    621519.62    373.06794    935.81505      0.76028    966.43312     2.025028    964.40809 
21847000    20000    621519.62    371.85172    899.40686      0.76028    950.73299   -10.531098    961.26409 
21848000    20000    621519.62    371.45408    845.03279      0.76028    950.06796   -10.168193    960.23615 
21849000    20000    621519.62    376.86663    912.63879      0.76028    962.39948   -11.828505    974.22799 
21850000    20000    621519.62    375.68127    755.08163      0.76028    967.85284   -3.3109016    971.16374 
21851000    20000    621519.62    374.18845    853.22558      0.76028    956.66815   -10.636546     967.3047 
21852000    20000    621519.62    374.47335    1183.3625      0.76028    962.70467   -5.3365076    968.04117 
21853000    20000    621519.62     369.8944    995.64581      0.76028    957.23678    1.0325204    956.20426 
21854000    20000    621519.62    371.70614    881.25544      0.76028    961.09832   0.21058933    960.88773 
21855000    20000    621519.62    372.18474     1138.098      0.76028    955.23463   -6.8903399    962.12497 
21856000    20000    621519.62    376.11563    1240.6811      0.76028    956.59061   -15.695994     972.2866 
21857000    20000    621519.62    368.41745    993.38798      0.76028    945.16833    -7.217897    952.38623 
21858000    20000    621519.62    375.01955    1240.0253      0.76028    966.47946   -2.9736908    969.45315 
21859000    20000    621519.62    373.15615     1013.158      0.76028    964.68114  0.045017261    964.63612 
21860000    20000    621519.62    373.70594    856.95006      0.76028    960.47011   -5.5872602    966.05737 
21861000    20000    621519.62    370.49851    1141.1206      0.76028    964.78193    7.0159915    957.76594 
21862000    20000    621519.62    370.39356    954.34896      0.76028    953.10166   -4.3929684    957.49463 
21863000    20000    621519.62    374.77261    1048.9169      0.76028    962.99476   -5.8200374     968.8148 
21864000    20000    621519.62    372.70364    785.58462      0.76028    962.87647  -0.58988313    963.46635 
21865000    20000    621519.62     372.8841    947.83587      0.76028    962.82497   -1.1078815    963.93285 
21866000    20000    621519.62    374.49217    1022.4013      0.76028    966.93659   -1.1532439    968.08984 
21867000    20000    621519.62    371.57834    1087.2101      0.76028    953.50047   -7.0569123    960.55738 
21868000    20000    621519.62    375.50204    1119.5458      0.76028    969.82676  -0.87367317    970.70043 
21869000    20000    621519.62    373.86043     996.9216      0.76028    965.42948   -1.0272672    966.45675 
21870000    20000    621519.62    371.08608    1053.4092      0.76028    950.24117    -9.043663    959.28483 
21871000    20000    621519.62    374.06572    838.38249      0.76028    961.55395   -5.4334765    966.98743 
21872000    20000    621519.62    373.61599    913.66561      0.76028    969.66842    3.8435815    965.82484 
21873000    20000    621519.62    376.10659    783.30335      0.76028    968.48866   -3.7745749    972.26324 
21874000    20000    621519.62    374.22574    950.18238      0.76028    966.37381   -1.0272804    967.40109 
21875000    20000    621519.62    369.79039    908.44876      0.76028    951.87538   -4.0600127    955.93539 
21876000    20000    621519.62    372.28698     1029.661      0.76028    949.67174   -12.717518    962.38926 
21877000    20000    621519.62    373.12864     1125.572      0.76028    960.36778   -4.1972176      964.565 
21878000    20000    621519.62    371.72998    1165.1368      0.76028    959.48976   -1.4596048    960.94936 
21879000    20000    621519.62    371.82144    1154.2589      0.76028    965.10797    3.9221534    961.18581 
21880000    20000    621519.62    370.63159    1157.4904      0.76028    946.14472    -11.96523    958.10995 
21881000    20000    621519.62    374.52324    980.29237      0.76028    957.64218    -10.52798    968.17016 
21882000    20000    621519.62     370.1875    919.04274      0.76028    972.55343    15.591478    956.96195 
21883000    20000    621519.62    371.91008    1212.8665      0.76028    960.36136   -1.0535862    961.41495 
21884000    20000    621519.62    374.42545    1170.6686      0.76028     954.2961   -13.621258    967.91736 
21885000    20000    621519.62    374.39348    889.61511      0.76028     954.7973   -13.037424    967.83473 
21886000    20000    621519.62    373.02161      1108.38      0.76028    964.52801    0.2396866    964.28832 
21887000    20000    621519.62    372.05163    1185.8618      0.76028    954.61002   -7.1708433    961.78086 
21888000    20000    621519.62     373.8695    821.43512      0.76028     962.4704   -4.0097891    966.48019 
21889000    20000    621519.62    374.33423    862.24034      0.76028    956.39314    -11.28841    967.68155 
21890000    20000    621519.62    371.44303    943.38599      0.76028    956.33564    -3.871947    960.20758 
21891000    20000    621519.62    373.71713    974.84453      0.76028    968.05644    1.9701282    966.08631 
21892000    20000    621519.62    371.46727    1514.1578      0.76028    952.10053   -8.1697071    960.27024 
21893000    20000    621519.62    371.47041    1308.9546      0.76028     963.2333    2.9549259    960.27837 
21894000    20000    621519.62    373.18647    939.70737      0.76028    966.25024    1.5357401     964.7145 
21895000    20000    621519.62    371.77593    1087.9301      0.76028    969.84261    8.7744569    961.06815 
21896000    20000    621519.62    371.78893    1138.1344      0.76028    955.72121   -5.3805579    961.10177 
21897000    20000    621519.62    376.37256    1053.2855      0.76028    974.24029    1.2894913    972.95079 
21898000    20000    621519.62    371.34958    753.96658      0.76028    958.25116   -1.7148414      959.966 
21899000    20000    621519.62    372.29338    735.01026      0.76028    964.27917    1.8733678     962.4058 
21900000    20000    621519.62    372.72015    1218.2781      0.76028    958.52559   -4.9834345    963.50903 
21901000    20000    621519.62    373.59945    1101.2859      0.76028    953.83433    -11.94777     965.7821 
21902000    20000    621519.62    374.32349    834.10421      0.76028    952.73411   -14.919679    967.65379 
21903000    20000    621519.62    372.16119    929.01738      0.76028     957.3696   -4.6944846    962.06409 
21904000    20000    621519.62     372.3233    1071.7426      0.76028    947.24882   -15.234328    962.48314 
21905000    20000    621519.62    375.01379    1047.7771      0.76028    963.55961    -5.878668    969.43827 
21906000    20000    621519.62    373.25917    1016.4836      0.76028    950.13782   -14.764617    964.90244 
21907000    20000    621519.62    373.81713    947.13532      0.76028    957.18406   -9.1607501    966.34481 
21908000    20000    621519.62    374.45697    1012.0482      0.76028    956.25794   -11.740905    967.99885 
21909000    20000    621519.62    375.04227    1165.3754      0.76028    957.86496   -11.646928    969.51189 
21910000    20000    621519.62    374.78547    1146.4247      0.76028    958.02936   -10.818672    968.84803 
21911000    20000    621519.62    374.11045    1156.6267      0.76028     956.8929   -10.210154    967.10305 
21912000    20000    621519.62    373.68016    1300.2657      0.76028    952.09301   -13.897723    965.99073 
21913000    20000    621519.62    376.23113    1071.5762      0.76028    970.41486   -2.1703247    972.58518 
21914000    20000    621519.62    375.25157     1226.622      0.76028    952.60883   -17.444105    970.05293 
21915000    20000    621519.62    371.44141    925.99226      0.76028    954.04979   -6.1536156     960.2034 
21916000    20000    621519.62    373.49096    994.69574      0.76028    953.46657   -12.035073    965.50164 
21917000    20000    621519.62    377.16291    1044.2197      0.76028    965.07797   -9.9159369    974.99391 
21918000    20000    621519.62    377.48472    769.83599      0.76028    975.68221  -0.14358564    975.82579 
21919000    20000    621519.62    371.28335    964.31268      0.76028    950.60175   -9.1930412    959.79479 
21920000    20000    621519.62     373.0563    892.25217      0.76028    964.57398   0.19598092      964.378 
21921000    20000    621519.62    374.42594    1090.6516      0.76028    956.97085   -10.947782    967.91863 
21922000    20000    621519.62    371.28575    942.92218      0.76028    950.78199   -9.0190061      959.801 
21923000    20000    621519.62    374.30071    1159.2389      0.76028    961.25008   -6.3448081    967.59489 
21924000    20000    621519.62    372.00918    1015.6918      0.76028    954.45098   -7.2201435    961.67112 
21925000    20000    621519.62    374.09208    1088.0067      0.76028    954.89202   -12.163557    967.05558 
21926000    20000    621519.62    372.54613    1072.4817      0.76028    958.45802   -4.6011552    963.05918 
21927000    20000    621519.62    372.71047    1058.9596      0.76028    953.83498   -9.6490423    963.48402 
21928000    20000    621519.62    374.62009    933.95282      0.76028    962.66569   -5.7548276    968.42052 
21929000    20000    621519.62    369.31866    978.90635      0.76028       947.55   -7.1659373    954.71594 
21930000    20000    621519.62    369.99361    883.84407      0.76028    947.70617   -8.7545461    956.46072 
21931000    20000    621519.62    377.29083    1227.3855      0.76028     973.5394   -1.7851839    975.32458 
21932000    20000    621519.62    370.57923    1009.4624      0.76028    953.68697   -4.2876358     957.9746 
21933000    20000    621519.62    373.03393    894.47187      0.76028    954.85207   -9.4681001    964.32017 
21934000    20000    621519.62    371.77335    1164.0381      0.76028    953.43037   -7.6311126    961.06148 
21935000    20000    621519.62    374.03304    994.46375      0.76028    962.18329   -4.7196552    966.90295 
21936000    20000    621519.62    374.59286    897.35586      0.76028    966.98336   -1.3667739    968.35013 
21937000    20000    621519.62    373.66127    973.55468      0.76028    960.65535    -5.286547     965.9419 
21938000    20000    621519.62    373.86748    1111.1009      0.76028    959.90785   -6.5671146    966.47496 
21939000    20000    621519.62    374.07321    1392.2175      0.76028    963.97239   -3.0344016     967.0068 
21940000    20000    621519.62    372.77745     996.9954      0.76028    955.57342   -8.0837372    963.65716 
21941000    20000    621519.62    372.01819    953.24677      0.76028    952.06792   -9.6265009    961.69442 
21942000    20000    621519.62    374.68549    974.68387      0.76028    960.91002   -7.6795589    968.58958 
21943000    20000    621519.62    371.06447     897.5116      0.76028    949.88879   -9.3401986    959.22899 
21944000    20000    621519.62    375.03611    944.01169      0.76028     962.8953   -6.6006685    969.49597 
21945000    20000    621519.62    376.56627    1048.9373      0.76028    968.73656   -4.7149924    973.45155 
21946000    20000    621519.62    374.49491    1128.2358      0.76028    953.89017   -14.206738    968.09691 
21947000    20000    621519.62     376.4709    1063.8631      0.76028    969.11499   -4.0900124      973.205 
21948000    20000    621519.62    370.91711    887.52046      0.76028    950.46113   -8.3869028    958.84803 
21949000    20000    621519.62    371.68645    1066.8504      0.76028    949.82423   -11.012614    960.83685 
21950000    20000    621519.62    373.56933    1023.9403      0.76028     964.4716   -1.2326323    965.70423 
21951000    20000    621519.62    373.99662     904.5924      0.76028    961.97492   -4.8338698    966.80879 
21952000    20000    621519.62    373.32028    902.57906      0.76028    954.80496   -10.255465    965.06042 
21953000    20000    621519.62    374.39328    1002.5844      0.76028    967.73785 -0.096337567    967.83419 
21954000    20000    621519.62    373.55691    1168.7226      0.76028    949.37008   -16.302053    965.67213 
21955000    20000    621519.62    376.16144    1037.2707      0.76028    979.75911    7.3540965    972.40502 
21956000    20000    621519.62    378.64491    1067.5568      0.76028    972.41021   -6.4147729    978.82498 
21957000    20000    621519.62    373.63806    1087.7537      0.76028    956.45326   -9.4286494    965.88191 
21958000    20000    621519.62    371.40132     861.0018      0.76028    953.70542   -6.3943302    960.09975 
21959000    20000    621519.62    372.48354    1090.8832      0.76028    956.72371   -6.1736676    962.89738 
21960000    20000    621519.62    371.59885    1165.2303      0.76028    956.30849   -4.3019125     960.6104 
21961000    20000    621519.62     373.4755     1074.585      0.76028    963.41993   -2.0417521    965.46168 
21962000    20000    621519.62    374.80901    1157.6254      0.76028    957.89749   -11.011398    968.90889 
21963000    20000    621519.62    373.89906    1315.3859      0.76028    965.79851  -0.75810227    966.55661 
21964000    20000    621519.62    372.65407    1015.9739      0.76028    959.54169    -3.796517    963.33821 
21965000    20000    621519.62    372.12897      1127.52      0.76028    968.41616    6.4353636    961.98079 
21966000    20000    621519.62    374.54902    1144.1001      0.76028     960.1416    -8.095196    968.23679 
21967000    20000    621519.62    372.44338    984.32445      0.76028    957.03448   -5.7590682    962.79355 
21968000    20000    621519.62    375.01232    818.83384      0.76028    968.77336  -0.66110606    969.43447 
21969000    20000    621519.62    373.51849    1149.9548      0.76028    966.52255   0.94973908    965.57281 
21970000    20000    621519.62     374.9063    1121.7694      0.76028    970.17248    1.0120933    969.16038 
21971000    20000    621519.62     372.5951    1093.3853      0.76028    974.64778    11.461998    963.18578 
21972000    20000    621519.62     373.0846    1016.5745      0.76028    962.60966   -1.8414963    964.45116 
21973000    20000    621519.62    374.49644    918.53397      0.76028    964.58195   -3.5189329    968.10089 
21974000    20000    621519.62    371.03621    925.79591      0.76028    938.28112   -20.874804    959.15592 
21975000    20000    621519.62     375.2074     861.7642      0.76028    961.03245   -8.9063122    969.93877 
21976000    20000    621519.62    370.35396    1095.4335      0.76028     936.2169   -21.175354    957.39226 
21977000    20000    621519.62    374.87345    613.91152      0.76028    965.45336   -3.6221183    969.07547 
21978000    20000    621519.62    374.74496    1003.8808      0.76028    957.89366   -10.849645    968.74331 
21979000    20000    621519.62    371.39325    895.62314      0.76028    956.10645   -3.9724467    960.07889 
21980000    20000    621519.62    373.54997    896.51139      0.76028    960.93327   -4.7209073    965.65418 
21981000    20000    621519.62    372.92109    821.92275      0.76028    956.46588   -7.5626077    964.02849 
21982000    20000    621519.62    371.18744    980.87773      0.76028    949.97176   -9.5751144    959.54688 
21983000    20000    621519.62    374.70073    1145.4179      0.76028    965.42784   -3.2011358    968.62897 
21984000    20000    621519.62     370.2756    1161.6092      0.76028    947.50033   -9.6893733    957.18971 
21985000    20000    621519.62    373.61436    812.36507      0.76028    958.54662   -7.2740193    965.82064 
21986000    20000    621519.62    370.44524    947.21922      0.76028    942.78006   -14.848164    957.62822 
21987000    20000    621519.62    375.17214    785.62057      0.76028    962.46627   -7.3813361    969.84761 
21988000    20000    621519.62     373.5596    1080.6421      0.76028    947.24183    -18.43723    965.67906 
21989000    20000    621519.62    373.70456    715.86061      0.76028    957.44071   -8.6130892     966.0538 
21990000    20000    621519.62    374.46465    851.90617      0.76028    959.26846   -8.7502236    968.01869 
21991000    20000    621519.62    374.16841     892.1678      0.76028    960.93686   -6.3160268    967.25289 
21992000    20000    621519.62    369.82767    1046.8077      0.76028     948.0662   -7.9655585    956.03176 
21993000    20000    621519.62    374.13443    930.45361      0.76028    960.83442   -6.3306282    967.16505 
21994000    20000    621519.62    372.73586       1057.6      0.76028    962.04088   -1.5087704    963.54965 
21995000    20000    621519.62    373.07837    960.17826      0.76028    959.38966   -5.0454025    964.43506 
21996000    20000    621519.62    375.66059    1250.3318      0.76028    973.17621    2.0659296    971.11028 
21997000    20000    621519.62    372.97527     1230.038      0.76028    956.91202   -7.2565182    964.16854 
21998000    20000    621519.62    376.35043    1051.4121      0.76028    976.92797    4.0343833    972.89359 
21999000    20000    621519.62    372.10122    928.33391      0.76028    952.46433   -9.4447161    961.90905 
22000000    20000    621519.62    372.21363    1162.3748      0.76028    956.46615   -5.7334843    962.19964 
Loop time of 111949 on 24 procs for 22000000 steps with 20000 atoms

Performance: 8.490 ns/day, 2.827 hours/ns, 196.518 timesteps/s
99.8% CPU use with 24 MPI tasks x no OpenMP threads

MPI task timing breakdown:
Section |  min time  |  avg time  |  max time  |%varavg| %total
---------------------------------------------------------------
Pair    | 90412      | 94299      | 99603      |1104.3 | 84.23
Bond    | 2328.4     | 2428       | 2532.1     | 174.7 |  2.17
Neigh   | 2429.1     | 2432       | 2435       |   4.0 |  2.17
Comm    | 4235.3     | 9504.6     | 13427      |3577.6 |  8.49
Output  | 5.3891     | 14.983     | 15.405     |  51.7 |  0.01
Modify  | 2873.9     | 3086.5     | 3519.6     | 429.2 |  2.76
Other   |            | 183.5      |            |       |  0.16

Nlocal:    833.333 ave 856 max 797 min
Histogram: 1 1 1 2 2 4 3 0 7 3
Nghost:    6921.67 ave 6980 max 6879 min
Histogram: 2 1 6 4 2 4 2 1 1 1
Neighs:    227679 ave 236587 max 214044 min
Histogram: 1 0 2 3 2 3 3 4 3 3

Total # of neighbors = 5464289
Ave neighs/atom = 273.214
Ave special neighs/atom = 4.8
Neighbor list builds = 211961
Dangerous builds = 0

if "${do_shake} == 1" then      "unfix      shk"
unfix           NVT_sllod

# Write Data File
write_data      data.${norun}.Bulk_NVT nocoeff nofix
write_data      data.1.Bulk_NVT nocoeff nofix
System init for write_data ...

shell           mv log.lammps log.${norun}.Bulk_NVT
shell           mv log.lammps log.1.Bulk_NVT
WARNING: Shell command 'mv' failed with error 'No such file or directory' (../input.cpp:1303)

Please see the log.cite file for references relevant to this simulation

Total wall time: 31:06:24
