LAMMPS (3 Mar 2020)
echo            both

#----------------------------------------------#
#-------------- BULK SIMULATION ---------------#
#----------------------------------------------#

# ---------- INPUT ----------
# Molecule data
variable        MolData     string "Decane.TraPPE-UA"
variable        N           equal 2000                   # Nr. of molecules
# Read data
variable        i_ReadData  equal 0                     # 0 - create atoms, 1,2,3,... - read data file
variable        file        string "Bulk_NVT"           # Data file to read (just file ending)
# State point
variable        tmp         equal 373.15
variable        rho_in      equal 0.67534
# Strain rate
variable        s_rate      equal 1.0e+09
# Numerics
variable        dt          equal 0.0005
variable        n_run       equal 22e6                   # NVT run
variable        n_equ       equal 1e4                   # Nr. of ts before production run
variable        c_Tdamp     equal 100                   # Suggested by lammps: 100
# Ensemble string
variable        ensemble    string "NVT"
# Write data
variable        do_set_E    equal 0                     # Scale total Energy at the end of run
# ---------------------------

# ---------- Simulation setup ---------
variable        norun       equal ${i_ReadData}+1
variable        norun       equal 0+1


# Set simulation conditions
units           metal
atom_style      full

dimension       3
atom_modify     map array
boundary        p p p
neighbor        2 multi
neigh_modify    every 2 delay 2 check yes

# Set timestep
timestep        ${dt}
timestep        0.0005

# Define lower start density
variable        rho_start equal 0.5*${rho_in}
variable        rho_start equal 0.5*0.67534

include         ${MolData}.inMolData
include         Decane.TraPPE-UA.inMolData
# -------------------- MolData --------------------
# Molecule:     n-Decane
# Force field:  TraPPE-UA
# Source:       Martin, M. G.; Siepmann, J. I. Transferable Potentials for Phase Equilibria. 1. United-Atom Description of n-Alkanes. The Journal of Physical Chemistry B 102 (14), 2569–2577.

variable        M_molar equal 142.2818

if "${i_ReadData} > 0" then 	"read_data      data.${i_ReadData}.${file}" else 	"variable       L_box equal (($N*${M_molar}*1e24)/(${rho_start}*6.02214076e23))^(1/3)"     "region         SimBox block 0 ${L_box} 0 ${L_box} 0 ${L_box}"     "create_box     4 SimBox bond/types 1 angle/types 3 dihedral/types 4 extra/bond/per/atom 2 extra/angle/per/atom 3 extra/dihedral/per/atom 4 extra/special/per/atom 6"     "molecule       1 ./Decane_UA.molecule"     "create_atoms   0 random ${N} 704 NULL mol 1 402"
variable       L_box equal (($N*${M_molar}*1e24)/(${rho_start}*6.02214076e23))^(1/3)
variable       L_box equal ((2000*${M_molar}*1e24)/(${rho_start}*6.02214076e23))^(1/3)
variable       L_box equal ((2000*142.2818*1e24)/(${rho_start}*6.02214076e23))^(1/3)
variable       L_box equal ((2000*142.2818*1e24)/(0.33767*6.02214076e23))^(1/3)
region         SimBox block 0 ${L_box} 0 ${L_box} 0 ${L_box}
region         SimBox block 0 111.852403851589 0 ${L_box} 0 ${L_box}
region         SimBox block 0 111.852403851589 0 111.852403851589 0 ${L_box}
region         SimBox block 0 111.852403851589 0 111.852403851589 0 111.852403851589
create_box     4 SimBox bond/types 1 angle/types 3 dihedral/types 4 extra/bond/per/atom 2 extra/angle/per/atom 3 extra/dihedral/per/atom 4 extra/special/per/atom 6
Created orthogonal box = (0 0 0) to (111.852 111.852 111.852)
  2 by 3 by 4 MPI processor grid
molecule       1 ./Decane_UA.molecule
Read molecule 1:
  10 atoms with max type 2
  9 bonds with max type 1
  8 angles with max type 1
  7 dihedrals with max type 1
  0 impropers with max type 0
create_atoms   0 random ${N} 704 NULL mol 1 402
create_atoms   0 random 2000 704 NULL mol 1 402
Created 20000 atoms
  create_atoms CPU = 0.00608582 secs

# Include Force Field Parameter
include          TraPPE-UA.parameter
# -------------------- MolData --------------------
# Molecule:     n-Decane
# Force field:  TraPPE
# ----- Sources: -----



# Mass of particeles ( https://de.webqc.org/mmcalc.php )
mass            1 15.0345       # CH3
mass            2 14.0266       # CH2
mass            3 13.0186       # CH
mass            4 12.0107       # C

# Charges of particles
set                 type * charge 0.0
  20000 settings made for charge

# TraPPE FF
# Nonbonded interaction
 pair_style      lj/cut 14
#pair_style      lj/long/coul/long long off 14
pair_coeff      1 1 0.00844499   3.75
pair_coeff      2 2 0.00396397   3.95
pair_coeff      3 3 0.000861733  4.68
pair_coeff      4 4 0.0000430867 6.4

pair_modify     mix arithmetic
pair_modify     tail yes

# kspace_style    ewald/disp 1.0e-4

# Bonded interaction
bond_style      harmonic
bond_coeff      1  9.756926 1.540           # CHARMM
# bond_coeff      1 14.820905 1.540           # GROMOS (4) -> actually parameter for quartic bond
# bond_coeff      1 11.621583 1.540           # OPLS-AA (5)


angle_style     harmonic
angle_coeff     1 2.692917 114
angle_coeff     2 2.692917 112
angle_coeff     3 2.692917 109.47


dihedral_style  fourier
dihedral_coeff  1 3                0.0305941 1 0 -0.00587614 2 180 0.0681905 3 0
dihedral_coeff  2 4 -0.0216347 0 0 0.0369451 1 0 -0.00963850 2 180 0.0380257 3 0
dihedral_coeff  3 1                                                0.0397509 3 0
dihedral_coeff  4 4 -0.0216347 0 0 0.0369451 1 0 -0.00963850 2 180 0.0380257 3 0

# Use of shake algorithm (0 - no, 1 - yes)
variable        do_shake equal 0

# Use multiple time step integrator 'respa'
# run_style       respa 2 2 2 bond 1 angle 2

change_box      all triclinic
  triclinic box = (0 0 0) to (111.852 111.852 111.852) with tilt (0 0 0)

# Set density by setting box length
variable 		factor_L equal "(density / v_rho_in)^(1/3)"
if "${rho_in} == 0 && ${i_ReadData} == 0" then "quit"
if "${rho_in} != 0" then     "change_box 		all x scale ${factor_L} y scale ${factor_L} z scale ${factor_L} remap"
change_box 		all x scale ${factor_L} y scale ${factor_L} z scale ${factor_L} remap
change_box 		all x scale 0.793700502699951 y scale ${factor_L} z scale ${factor_L} remap
change_box 		all x scale 0.793700502699951 y scale 0.793700502699951 z scale ${factor_L} remap
change_box 		all x scale 0.793700502699951 y scale 0.793700502699951 z scale 0.793700502699951 remap
  triclinic box = (11.5375 0 0) to (100.315 111.852 111.852) with tilt (0 0 0)
  triclinic box = (11.5375 11.5375 0) to (100.315 100.315 111.852) with tilt (0 0 0)
  triclinic box = (11.5375 11.5375 11.5375) to (100.315 100.315 100.315) with tilt (0 0 0)

# Set velocity atoms defined by temperature
if "${i_ReadData} == 0" then "velocity all create ${tmp} 310"
velocity all create ${tmp} 310
velocity all create 373.15 310

# ---------- Minimize Eenergy ---------
if "${i_ReadData} == 0" then   "minimize   0.001 1.0e-4 1000 10000"
minimize   0.001 1.0e-4 1000 10000
WARNING: Using 'neigh_modify every 1 delay 0 check yes' setting during minimization (../min.cpp:190)
Neighbor list info ...
  update every 1 steps, delay 0 steps, check yes
  max neighbors/atom: 2000, page size: 100000
  master list distance cutoff = 16
  ghost atom cutoff = 16
  binsize = 8, bins = 12 12 12
  1 neighbor lists, perpetual/occasional/extra = 1 0 0
  (1) pair lj/cut, perpetual
      attributes: half, newton on
      pair build: half/multi/newton/tri
      stencil: half/multi/3d/newton/tri
      bin: standard
Per MPI rank memory allocation (min/avg/max) = 10.7 | 10.97 | 11.14 Mbytes
Step Temp E_pair E_mol TotEng Press 
       0       373.15 4.1566973e+15    18650.198 4.1566973e+15 3.8072624e+16 
     413       373.15   -857.58758    335.89494    442.92759    2924.2864 
Loop time of 2.45613 on 24 procs for 413 steps with 20000 atoms

99.2% CPU use with 24 MPI tasks x no OpenMP threads

Minimization stats:
  Stopping criterion = energy tolerance
  Energy initial, next-to-last, final = 
     4.15669725026e+15     -521.185813255     -521.692635719
  Force two-norm initial, final = 1.84579e+17 8.73711
  Force max component initial, final = 6.65824e+16 3.77734
  Final line search alpha, max atom move = 0.0348636 0.131692
  Iterations, force evaluations = 413 545

MPI task timing breakdown:
Section |  min time  |  avg time  |  max time  |%varavg| %total
---------------------------------------------------------------
Pair    | 1.2432     | 1.8266     | 2.1528     |  18.5 | 74.37
Bond    | 0.038877   | 0.049611   | 0.054744   |   1.9 |  2.02
Neigh   | 0.14451    | 0.14476    | 0.14499    |   0.0 |  5.89
Comm    | 0.068517   | 0.40056    | 1.0035     |  41.0 | 16.31
Output  | 0          | 0          | 0          |   0.0 |  0.00
Modify  | 0          | 0          | 0          |   0.0 |  0.00
Other   |            | 0.03457    |            |       |  1.41

Nlocal:    833.333 ave 906 max 667 min
Histogram: 1 1 0 2 0 3 2 4 6 5
Nghost:    6440.38 ave 6714 max 6140 min
Histogram: 1 2 3 1 3 4 4 2 2 2
Neighs:    204969 ave 234550 max 145878 min
Histogram: 1 0 2 2 1 3 2 4 1 8

Total # of neighbors = 4919248
Ave neighs/atom = 245.962
Ave special neighs/atom = 4.8
Neighbor list builds = 17
Dangerous builds = 0

# -------------- MD NVT ---------------
# NpT/NVT Setup
variable        Tdamp equal ${c_Tdamp}*dt
variable        Tdamp equal 100*dt

# Log File
thermo          1000
thermo_style    custom step atoms vol temp press density etotal pe ke

# Ensemble Setup and Shake Fix
if "${do_shake} == 1" then      "fix        shk all shake 1e-5 100 10000 b 2"
fix             NVT all nvt temp ${tmp} ${tmp} ${Tdamp}
fix             NVT all nvt temp 373.15 ${tmp} ${Tdamp}
fix             NVT all nvt temp 373.15 373.15 ${Tdamp}
fix             NVT all nvt temp 373.15 373.15 0.05

# --- Equilibration ---
run             ${n_equ}
run             10000
Per MPI rank memory allocation (min/avg/max) = 9.578 | 9.845 | 10.02 Mbytes
Step Atoms Volume Temp Press Density TotEng PotEng KinEng 
     413    20000    699690.43       373.15    2924.2864      0.67534    442.92759   -521.69264    964.62023 
    1000    20000    699690.43    359.81393    1770.2422      0.67534    972.43021    42.284691    930.14551 
    2000    20000    699690.43    383.47342    754.09711      0.67534    1077.1356    85.828581    991.30702 
    3000    20000    699690.43    374.78984    886.69063      0.67534    1126.1747    157.31535    968.85932 
    4000    20000    699690.43    372.76911    416.34488      0.67534      1160.22     196.5844     963.6356 
    5000    20000    699690.43     372.5684      337.677      0.67534     1177.895    214.77821    963.11674 
    6000    20000    699690.43    371.69211    348.10409      0.67534    1191.9116    231.06013    960.85148 
    7000    20000    699690.43    373.16778    120.84559      0.67534    1187.0304    222.36423     964.6662 
    8000    20000    699690.43    372.37732   -16.154835      0.67534    1186.9584    224.33558     962.6228 
    9000    20000    699690.43     378.9555    7.1091856      0.67534     1199.225    219.59715    979.62788 
   10000    20000    699690.43    373.64598    132.03112      0.67534    1199.6546     233.7522    965.90238 
   10413    20000    699690.43    371.99544    157.73935      0.67534    1210.8328    249.19725    961.63559 
Loop time of 28.9432 on 24 procs for 10000 steps with 20000 atoms

Performance: 14.926 ns/day, 1.608 hours/ns, 345.504 timesteps/s
99.8% CPU use with 24 MPI tasks x no OpenMP threads

MPI task timing breakdown:
Section |  min time  |  avg time  |  max time  |%varavg| %total
---------------------------------------------------------------
Pair    | 22.501     | 23.886     | 25.197     |  13.7 | 82.53
Bond    | 0.74197    | 0.78044    | 0.80968    |   2.1 |  2.70
Neigh   | 0.81964    | 0.82011    | 0.82103    |   0.0 |  2.83
Comm    | 1.7737     | 3.1087     | 4.5307     |  39.6 | 10.74
Output  | 0.00038425 | 0.00048154 | 0.0026577  |   0.0 |  0.00
Modify  | 0.17632    | 0.28363    | 0.40123    |  14.5 |  0.98
Other   |            | 0.06343    |            |       |  0.22

Nlocal:    833.333 ave 877 max 796 min
Histogram: 1 1 5 5 5 0 2 2 2 1
Nghost:    6474.29 ave 6559 max 6386 min
Histogram: 1 1 1 7 3 2 4 1 2 2
Neighs:    202123 ave 219439 max 187264 min
Histogram: 1 1 1 7 7 2 0 3 1 1

Total # of neighbors = 4850945
Ave neighs/atom = 242.547
Ave special neighs/atom = 4.8
Neighbor list builds = 98
Dangerous builds = 0

# --- Actual Run ---
reset_timestep  0

unfix           NVT

# Setup for sllod
fix             NVT_sllod all nvt/sllod temp ${tmp} ${tmp} ${Tdamp}
fix             NVT_sllod all nvt/sllod temp 373.15 ${tmp} ${Tdamp}
fix             NVT_sllod all nvt/sllod temp 373.15 373.15 ${Tdamp}
fix             NVT_sllod all nvt/sllod temp 373.15 373.15 0.05
variable        s_rate_ps equal ${s_rate}*1e-12
variable        s_rate_ps equal 1000000000*1e-12
fix             shear all deform 1 yz erate ${s_rate_ps} remap v
fix             shear all deform 1 yz erate 0.001 remap v

include         in.ThermoOutput_sllod
# Script to write out data for subsequent calculation of transport coefficients

# ----------  General ----------
variable 		dt equal dt
variable        N_atoms equal atoms
variable 		V equal vol
compute         T_deform all temp/deform
thermo_modify   temp T_deform
variable 		T equal c_T_deform
compute         p_deform all pressure T_deform
thermo_modify   press p_deform
variable		p equal c_p_deform
variable		p equal press
variable		pxy equal c_p_deform[4]
variable		pxz equal c_p_deform[5]
variable		pyz equal c_p_deform[6]
variable		rho equal density
variable 		Etot equal etotal
variable 		Ekin equal ke
variable 		Epot equal pe
variable        eta equal -c_p_deform[6]*1e5/v_s_rate
variable        header string "MolType: ${MolData}; TimeStep: ${dt}; No. Atoms: ${N_atoms};"
MolType: Decane.TraPPE-UA; TimeStep: ${dt}; No. Atoms: ${N_atoms};
MolType: Decane.TraPPE-UA; TimeStep: 0.0005; No. Atoms: ${N_atoms};
MolType: Decane.TraPPE-UA; TimeStep: 0.0005; No. Atoms: 20000;

# Print Simulation info to file -> info.dat
print			"MolType: ${MolData}" file info.${ensemble}.${norun}.dat
print			"MolType: ${MolData}" file info.NVT.${norun}.dat
print			"MolType: ${MolData}" file info.NVT.1.dat
MolType: Decane.TraPPE-UA
print			"TimeStep: ${dt}" append info.${ensemble}.${norun}.dat
print			"TimeStep: ${dt}" append info.NVT.${norun}.dat
print			"TimeStep: ${dt}" append info.NVT.1.dat
TimeStep: 0.0005
print			"No. Atoms: ${N_atoms}" append info.${ensemble}.${norun}.dat
print			"No. Atoms: ${N_atoms}" append info.NVT.${norun}.dat
print			"No. Atoms: ${N_atoms}" append info.NVT.1.dat
No. Atoms: 20000
print			"Average Molar Mass: ${M_molar}" append info.${ensemble}.${norun}.dat
print			"Average Molar Mass: ${M_molar}" append info.NVT.${norun}.dat
print			"Average Molar Mass: ${M_molar}" append info.NVT.1.dat
Average Molar Mass: 142.2818

# ---------- Thermodynamics Output to Calculate Averages ----------
# -> output: thermo.dat
# Averaging Setup
variable		nfre equal 1000
fix				thermo_ave all ave/time 1 ${nfre} ${nfre} 					v_T v_p v_rho v_Etot v_Ekin v_Epot v_pyz v_eta 					file thermo.${ensemble}.${norun}.dat
fix				thermo_ave all ave/time 1 1000 ${nfre} 					v_T v_p v_rho v_Etot v_Ekin v_Epot v_pyz v_eta 					file thermo.${ensemble}.${norun}.dat
fix				thermo_ave all ave/time 1 1000 1000 					v_T v_p v_rho v_Etot v_Ekin v_Epot v_pyz v_eta 					file thermo.${ensemble}.${norun}.dat
fix				thermo_ave all ave/time 1 1000 1000 					v_T v_p v_rho v_Etot v_Ekin v_Epot v_pyz v_eta 					file thermo.NVT.${norun}.dat
fix				thermo_ave all ave/time 1 1000 1000 					v_T v_p v_rho v_Etot v_Ekin v_Epot v_pyz v_eta 					file thermo.NVT.1.dat

# ---------- Velocities along z axis ----------
# -> output: vy_profile.dat
variable        nbin equal 10
variable        dz equal 1/${nbin}
variable        dz equal 1/10
variable		neve_pro equal 1
variable		nrep_pro equal 1000
variable		nfre_pro equal 1000
compute         layers all chunk/atom bin/1d z center ${dz} units reduced
compute         layers all chunk/atom bin/1d z center 0.1 units reduced
fix		        profile all ave/chunk ${neve_pro} ${nrep_pro} ${nfre_pro} layers vy file vy_profile.dat
fix		        profile all ave/chunk 1 ${nrep_pro} ${nfre_pro} layers vy file vy_profile.dat
fix		        profile all ave/chunk 1 1000 ${nfre_pro} layers vy file vy_profile.dat
fix		        profile all ave/chunk 1 1000 1000 layers vy file vy_profile.dat

# ---------- Atoms Positions to Calculate Mean Square Displacement ----------
# -> output: atoms_position.dump
# variable    	ndump equal 1000
# dump			atomspos all custom ${ndump} atoms_position.${ensemble}.${norun}.dump id mol mass xu yu zu

run             ${n_run}
run             22000000
Per MPI rank memory allocation (min/avg/max) = 10.22 | 10.26 | 10.28 Mbytes
Step Atoms Volume Temp Press Density TotEng PotEng KinEng 
       0    20000    699690.43    372.00785    157.78833      0.67534    1210.8649    249.19725    961.66768 
    1000    20000    699690.43    369.80235    263.10622      0.67534    1198.2168     242.2505     955.9663 
    2000    20000    699690.43    373.37719   -37.431033      0.67534    1213.0653    247.85776    965.20753 
    3000    20000    699690.43    373.90887    222.98879      0.67534    1209.2639    242.68193    966.58196 
    4000    20000    699690.43    373.92716    282.43051      0.67534    1221.6468    255.01756    966.62925 
    5000    20000    699690.43    378.08713    153.67513      0.67534    1228.5275    251.14446    977.38308 
    6000    20000    699690.43    374.46678   -44.850385      0.67534    1222.4689    254.44468     968.0242 
    7000    20000    699690.43    371.51356    140.86746      0.67534    1214.8697    254.47978    960.38991 
    8000    20000    699690.43    372.94729    334.54738      0.67534    1229.5374    265.44118     964.0962 
    9000    20000    699690.43    371.37632    68.037376      0.67534    1212.4831    252.44791    960.03514 
   10000    20000    699690.43    374.13203    223.42411      0.67534    1235.1412     267.9824    967.15885 
   11000    20000    699690.43    373.96139    153.07374      0.67534    1227.0769    260.35918    966.71773 
   12000    20000    699690.43    373.21121    179.39263      0.67534    1223.7202    258.94174    964.77845 
   13000    20000    699690.43    374.32271    218.36505      0.67534    1235.6604     268.0086    967.65177 
   14000    20000    699690.43    375.58554    27.393939      0.67534    1232.3585    261.44223    970.91628 
   15000    20000    699690.43    373.20057    60.700464      0.67534    1227.1433    262.39238    964.75096 
   16000    20000    699690.43    374.67182    48.555066      0.67534    1236.6997    268.14548    968.55426 
   17000    20000    699690.43    372.54711    244.45685      0.67534    1225.6181    262.55641    963.06172 
   18000    20000    699690.43    372.26853    24.549267      0.67534    1218.1731     255.8315    962.34155 
   19000    20000    699690.43    374.23475    8.9609106      0.67534    1237.4153    269.99095    967.42439 
   20000    20000    699690.43      374.079   -109.79341      0.67534    1229.3483     262.3265    967.02176 
   21000    20000    699690.43    372.21374    17.304575      0.67534    1233.5419    271.34201    962.19993 
   22000    20000    699690.43    374.15236    114.54107      0.67534    1233.1562    265.94482    967.21141 
   23000    20000    699690.43    371.94597    180.40181      0.67534    1217.4993    255.99159    961.50773 
   24000    20000    699690.43    380.33103    36.660625      0.67534    1255.8881    272.70441    983.18372 
   25000    20000    699690.43    374.10036    186.25404      0.67534    1232.0049    264.92788    967.07697 
   26000    20000    699690.43    373.92827    69.176389      0.67534    1241.7525    275.12043    966.63211 
   27000    20000    699690.43     370.1594    81.264086      0.67534    1223.5788    266.68953    956.88932 
   28000    20000    699690.43    372.01769    69.955443      0.67534    1226.9947    265.30155    961.69311 
   29000    20000    699690.43    372.88374    -82.92945      0.67534    1227.3916    263.45971    963.93191 
   30000    20000    699690.43    375.27623   -42.901145      0.67534    1236.0799    265.96322     970.1167 
   31000    20000    699690.43    373.52302   -117.06557      0.67534    1226.8239    261.23941    965.58452 
   32000    20000    699690.43    370.97496    169.29162      0.67534     1228.974    269.97644     958.9976 
   33000    20000    699690.43    374.16123   -240.20792      0.67534    1243.9418    276.70747    967.23433 
   34000    20000    699690.43    374.52614    222.52809      0.67534    1239.2592    271.08159    968.17764 
   35000    20000    699690.43    375.91397    47.516781      0.67534    1244.9333    273.16796    971.76531 
   36000    20000    699690.43    370.10024    42.033592      0.67534    1230.7604    274.02408    956.73636 
   37000    20000    699690.43    370.56686     22.77583      0.67534     1221.314    263.37143    957.94261 
   38000    20000    699690.43    375.62513    326.13807      0.67534    1234.5605    263.54187    971.01862 
   39000    20000    699690.43    370.35222     18.27639      0.67534    1229.5308    272.14305    957.38777 
   40000    20000    699690.43     374.0597    140.86615      0.67534    1235.8689      268.897    966.97187 
   41000    20000    699690.43    372.41971   -39.686099      0.67534    1236.0968    273.36443    962.73237 
   42000    20000    699690.43    376.87301    -113.5825      0.67534    1239.0619    264.81747    974.24447 
   43000    20000    699690.43    371.08767     86.30401      0.67534    1229.7378    270.44885    959.28895 
   44000    20000    699690.43    371.46855    4.3864769      0.67534    1219.8453     259.5717    960.27356 
   45000    20000    699690.43    373.84038   -69.235735      0.67534    1233.2321     266.8272    966.40492 
   46000    20000    699690.43    371.86884    81.765923      0.67534    1233.3733    272.06496    961.30835 
   47000    20000    699690.43    372.34629   -57.028341      0.67534     1238.678    276.13539    962.54259 
   48000    20000    699690.43     373.1501   -248.21101      0.67534    1231.9082    267.28776    964.62049 
   49000    20000    699690.43    375.18658    61.245016      0.67534    1234.6516     264.7667    969.88494 
   50000    20000    699690.43    372.23146    102.21149      0.67534     1235.564    273.31828    962.24574 
   51000    20000    699690.43    373.99176   -89.538661      0.67534    1230.3967    263.60048    966.79625 
   52000    20000    699690.43    373.28052   -44.755424      0.67534    1233.8775    268.91983    964.95764 
   53000    20000    699690.43    374.03389    27.939063      0.67534    1244.0865    277.18136    966.90516 
   54000    20000    699690.43    372.70456    162.90598      0.67534    1217.0014    253.53262    963.46874 
   55000    20000    699690.43    373.93086    99.462364      0.67534    1241.2818    274.64303    966.63882 
   56000    20000    699690.43    378.55424    147.24824      0.67534     1255.386    276.79545     978.5906 
   57000    20000    699690.43    376.79951    40.875998      0.67534    1239.2339    265.17938    974.05449 
   58000    20000    699690.43    376.75435    215.61472      0.67534    1235.6974    261.75963    973.93773 
   59000    20000    699690.43    371.96153    279.76634      0.67534    1234.4017    272.85378    961.54796 
   60000    20000    699690.43    373.19039    67.604028      0.67534    1238.3183    273.59369    964.72463 
   61000    20000    699690.43    372.89523    32.216472      0.67534     1227.768    263.80633    963.96162 
   62000    20000    699690.43    377.32604   -149.49597      0.67534    1242.1794    266.76383     975.4156 
   63000    20000    699690.43    374.00042    69.884429      0.67534    1231.3644    264.54579    966.81862 
   64000    20000    699690.43    374.76869    -193.4862      0.67534    1243.9087    275.10404    968.80466 
   65000    20000    699690.43    374.39435   -27.754023      0.67534    1239.5275    271.69058    967.83696 
   66000    20000    699690.43    373.35088    3.5873459      0.67534    1234.4754    269.33587    965.13951 
   67000    20000    699690.43     372.1208    71.257777      0.67534    1231.4502    269.49057    961.95967 
   68000    20000    699690.43    374.44002   -17.734114      0.67534    1239.1518    271.19677    967.95503 
   69000    20000    699690.43    374.46583   -109.18899      0.67534    1231.7421    263.72035    968.02176 
   70000    20000    699690.43    374.60587   -84.443901      0.67534     1241.172    272.78822    968.38375 
   71000    20000    699690.43    369.98744   -170.46619      0.67534    1222.5994    266.15459    956.44477 
   72000    20000    699690.43    374.70709   -81.791321      0.67534    1230.1565    261.51109    968.64541 
   73000    20000    699690.43    374.11781   -106.10782      0.67534    1231.2475    264.12543    967.12208 
   74000    20000    699690.43    370.72814    130.68027      0.67534    1222.0453    263.68575    958.35953 
   75000    20000    699690.43    373.46455   -50.743018      0.67534    1235.3501    269.91673    965.43335 
   76000    20000    699690.43    370.09364   -93.337348      0.67534    1224.6775    267.95817    956.71931 
   77000    20000    699690.43     375.4694    -238.3705      0.67534    1248.2076    277.59151    970.61605 
   78000    20000    699690.43    371.34869   -63.872278      0.67534    1222.1767    262.21297    959.96371 
   79000    20000    699690.43    374.10716   -142.45083      0.67534    1234.4529    267.35837    967.09456 
   80000    20000    699690.43    372.07556    36.622673      0.67534    1228.7484    266.90568    961.84271 
   81000    20000    699690.43    371.32757    96.608638      0.67534    1235.3227    275.41361     959.9091 
   82000    20000    699690.43    374.52442    330.01633      0.67534    1229.1248    260.95154    968.17321 
   83000    20000    699690.43    373.41916   -66.507247      0.67534    1232.1081     266.7921    965.31604 
   84000    20000    699690.43    373.57233    111.69435      0.67534     1245.142    279.42997    965.71199 
   85000    20000    699690.43    375.17469    17.778249      0.67534    1230.8677    261.01346    969.85421 
   86000    20000    699690.43    372.09494   -78.400326      0.67534    1224.1035    262.21068    961.89283 
   87000    20000    699690.43    373.49162   -80.515755      0.67534    1237.6945    272.19115    965.50333 
   88000    20000    699690.43    374.53015   -93.553587      0.67534     1250.551    282.36295    968.18803 
   89000    20000    699690.43    370.79325   -55.253552      0.67534      1230.45    271.92211    958.52786 
   90000    20000    699690.43    375.20767    80.002573      0.67534     1240.668    270.72856    969.93946 
   91000    20000    699690.43    374.13085     -172.382      0.67534    1233.2035    266.04772     967.1558 
   92000    20000    699690.43    374.14356    132.90822      0.67534    1230.1287       262.94    967.18866 
   93000    20000    699690.43    375.70832    72.125165      0.67534    1241.8071    270.57346    971.23367 
   94000    20000    699690.43    376.06221   -157.29487      0.67534    1239.0234    266.87485    972.14851 
   95000    20000    699690.43    374.64789    59.850054      0.67534    1231.1563    262.66386     968.4924 
   96000    20000    699690.43    370.04545    269.98595      0.67534    1223.4058    266.81104    956.59473 
   97000    20000    699690.43    373.45872   -21.885496      0.67534    1241.1385    275.72016     965.4183 
   98000    20000    699690.43    370.58169    75.654908      0.67534    1220.5996     262.6186    957.98095 
   99000    20000    699690.43    374.25692   -126.92447      0.67534    1235.9886    268.50695    967.48169 
  100000    20000    699690.43    375.95584   -123.24505      0.67534    1241.9483    270.07476    971.87353 
  101000    20000    699690.43    372.60783   -28.177636      0.67534    1229.4424    266.22371    963.21867 
  102000    20000    699690.43     373.8504    35.031346      0.67534    1222.3104    255.87953    966.43082 
  103000    20000    699690.43    373.59772    -99.48649      0.67534     1231.311     265.5334    965.77762 
  104000    20000    699690.43    372.46289   -379.56819      0.67534    1218.9435     256.0995      962.844 
  105000    20000    699690.43    376.58791   -156.32018      0.67534    1234.5514    261.04388    973.50748 
  106000    20000    699690.43    372.16677   -281.11861      0.67534    1223.4926    261.41406    962.07849 
  107000    20000    699690.43    370.34572   -129.17474      0.67534    1224.4374    267.06643    957.37097 
  108000    20000    699690.43    374.64547    64.228811      0.67534    1237.0138     268.5277    968.48612 
  109000    20000    699690.43    372.74375   -165.51233      0.67534    1219.5921    256.02206    963.57004 
  110000    20000    699690.43    375.14464   -11.223007      0.67534    1241.1266    271.35011    969.77653 
  111000    20000    699690.43    372.47646   -70.589034      0.67534    1225.8595    262.98043    962.87908 
  112000    20000    699690.43    377.24858    176.07893      0.67534    1230.6358    255.42045    975.21537 
  113000    20000    699690.43     372.7432    12.959128      0.67534    1220.1138    256.54514    963.56863 
  114000    20000    699690.43    373.28506    286.57246      0.67534    1217.7262    252.75682    964.96936 
  115000    20000    699690.43    373.17898   -106.16348      0.67534    1219.7479    255.05272    964.69514 
  116000    20000    699690.43    377.07404    149.33194      0.67534     1239.004    264.23984    974.76416 
  117000    20000    699690.43    371.86986    173.53375      0.67534    1231.4161     270.1051    961.31097 
  118000    20000    699690.43     371.5357   -121.90126      0.67534    1222.4988    262.05164    960.44714 
  119000    20000    699690.43    374.39154    25.400978      0.67534     1222.308    254.47828    967.82969 
  120000    20000    699690.43    369.78593    -87.80357      0.67534    1221.5628     265.6389    955.92386 
  121000    20000    699690.43    372.93207     36.97245      0.67534    1230.2935    266.23661    964.05686 
  122000    20000    699690.43    372.43336   -45.536358      0.67534    1234.1961    271.42847    962.76766 
  123000    20000    699690.43    375.56309   -1.9936692      0.67534    1234.1637    263.30547    970.85823 
  124000    20000    699690.43     373.3328   -172.64467      0.67534    1224.8809     259.7881    965.09279 
  125000    20000    699690.43    372.75214   -138.95085      0.67534    1234.3913    270.79959    963.59173 
  126000    20000    699690.43    372.19249   0.15602181      0.67534    1234.2733    272.12827      962.145 
  127000    20000    699690.43      373.615     120.6886      0.67534    1236.3882    270.56593    965.82228 
  128000    20000    699690.43     369.9621    19.608217      0.67534    1231.3929    275.01362    956.37928 
  129000    20000    699690.43    370.53093    33.057519      0.67534    1228.4255    270.57574    957.84975 
  130000    20000    699690.43    369.65145    1.5674897      0.67534     1232.887    277.31076    955.57621 
  131000    20000    699690.43    370.92026    4.8447489      0.67534     1221.618     262.7618    958.85618 
  132000    20000    699690.43    375.53552   -103.65222      0.67534    1243.8827    273.09576    970.78698 
  133000    20000    699690.43    371.37581    129.84345      0.67534    1223.9488    263.91498    960.03382 
  134000    20000    699690.43     371.8976   -111.04958      0.67534     1230.981    269.59833    961.38269 
  135000    20000    699690.43    376.48823    22.576349      0.67534    1234.1499    260.90013     973.2498 
  136000    20000    699690.43    372.98774    73.484447      0.67534    1231.6762    267.47544    964.20079 
  137000    20000    699690.43    371.78732   -86.060887      0.67534    1230.1879    269.09025     961.0976 
  138000    20000    699690.43    369.90495    20.342624      0.67534    1221.6127    265.38115    956.23154 
  139000    20000    699690.43    371.32311   -71.652311      0.67534    1224.0185    264.12087     959.8976 
  140000    20000    699690.43    373.85863    298.70144      0.67534    1248.3825    281.93042     966.4521 
  141000    20000    699690.43      371.004   -12.599909      0.67534    1219.4692    260.39656    959.07265 
  142000    20000    699690.43    372.54298    100.56212      0.67534    1234.0069    270.95581    963.05104 
  143000    20000    699690.43     374.2403   -153.27633      0.67534    1230.8878    263.44902    967.43874 
  144000    20000    699690.43    372.54341    59.118345      0.67534    1222.5438    259.49161    963.05216 
  145000    20000    699690.43    373.22937   -75.740219      0.67534    1238.5449    273.71955     964.8254 
  146000    20000    699690.43     369.3957    57.099125      0.67534    1215.9635    261.04837    954.91509 
  147000    20000    699690.43    369.47648    26.632408      0.67534    1220.8559    265.73199     955.1239 
  148000    20000    699690.43     373.4525    34.318918      0.67534    1226.8959    261.49367    965.40221 
  149000    20000    699690.43    371.78842   -133.83854      0.67534    1223.8709    262.77043    961.10045 
  150000    20000    699690.43     373.4734     136.6522      0.67534    1230.6394    265.18313    965.45624 
  151000    20000    699690.43     378.8679   -38.689605      0.67534    1255.9262    276.52479    979.40143 
  152000    20000    699690.43    373.01249    55.091786      0.67534    1231.9529    267.68811    964.26475 
  153000    20000    699690.43     375.4733    166.03924      0.67534     1240.063    269.43687    970.62614 
  154000    20000    699690.43    370.74573     154.6608      0.67534    1221.7943    263.38929    958.40501 
  155000    20000    699690.43     373.2269    57.644756      0.67534    1234.8114    269.99238    964.81902 
  156000    20000    699690.43    373.23732   -168.11141      0.67534    1228.5941    263.74809    964.84596 
  157000    20000    699690.43    374.25813    36.409414      0.67534    1226.6791    259.19428    967.48482 
  158000    20000    699690.43    370.25521   -8.5146584      0.67534    1224.7308    267.59384    957.13698 
  159000    20000    699690.43    376.62821   -239.49337      0.67534    1238.0223    264.41067    973.61165 
  160000    20000    699690.43    372.74192   -75.889353      0.67534    1225.9981    262.43282     963.5653 
  161000    20000    699690.43    377.41572    5.4256209      0.67534    1243.6369    267.98946    975.64744 
  162000    20000    699690.43     372.5901    -120.9121      0.67534    1230.0227    266.84986    963.17283 
  163000    20000    699690.43    376.05933     103.9992      0.67534     1241.803    269.66192    972.14106 
  164000    20000    699690.43    372.22723     79.20271      0.67534    1226.9318    264.69698    962.23479 
  165000    20000    699690.43    372.22308     49.75295      0.67534    1228.9442    266.72017    962.22407 
  166000    20000    699690.43    370.03275   -189.65352      0.67534    1231.1519    274.58998     956.5619 
  167000    20000    699690.43    371.99941    60.932499      0.67534    1233.7996    272.15373    961.64586 
  168000    20000    699690.43    372.32222    108.75674      0.67534    1224.6295    262.14919    962.48036 
  169000    20000    699690.43    370.09808   -180.81553      0.67534    1225.3695    268.63875    956.73079 
  170000    20000    699690.43    373.10732    72.065195      0.67534    1236.9779      272.468     964.5099 
  171000    20000    699690.43    373.88284    109.80784      0.67534    1225.1258    258.61114    966.51468 
  172000    20000    699690.43    372.49734   -172.48279      0.67534    1234.5503    271.61724    962.93306 
  173000    20000    699690.43    369.70156    155.09031      0.67534    1228.6315    272.92573    955.70576 
  174000    20000    699690.43    372.09842    42.647678      0.67534    1239.0499    277.14808    961.90182 
  175000    20000    699690.43    372.98177   -12.820045      0.67534    1243.6891    279.50379    964.18534 
  176000    20000    699690.43    370.41278    33.808219      0.67534    1215.3959    257.85162    957.54432 
  177000    20000    699690.43    371.76001    44.045488      0.67534    1226.1683    265.14126      961.027 
  178000    20000    699690.43    376.78245   -220.38057      0.67534    1247.3972    273.38681    974.01037 
  179000    20000    699690.43    375.56349   -95.612767      0.67534      1237.57     266.7107    970.85927 
  180000    20000    699690.43    375.63869    17.911677      0.67534    1238.0093    266.95565    971.05368 
  181000    20000    699690.43    371.93442   -58.026955      0.67534    1228.0046    266.52677    961.47786 
  182000    20000    699690.43    374.14311    142.82321      0.67534    1235.6366    268.44913     967.1875 
  183000    20000    699690.43    371.87321    19.592909      0.67534    1233.8722    272.55255    961.31964 
  184000    20000    699690.43    371.38556   -113.52741      0.67534    1225.7629    265.70387    960.05901 
  185000    20000    699690.43    371.26408   -268.46352      0.67534    1211.1708    251.42583    959.74498 
  186000    20000    699690.43    373.16176    7.7952735      0.67534    1231.1602    266.50956    964.65064 
  187000    20000    699690.43    376.59895   -81.021251      0.67534    1237.2548    263.71875    973.53602 
  188000    20000    699690.43     371.9512   -198.91209      0.67534    1227.2373     265.7161    961.52124 
  189000    20000    699690.43     374.4099   -5.5273211      0.67534    1235.6112    267.73399    967.87716 
  190000    20000    699690.43    374.52052    19.212489      0.67534    1230.1141    261.95094    968.16313 
  191000    20000    699690.43    373.93682    88.660832      0.67534    1229.7661    263.11188    966.65422 
  192000    20000    699690.43    376.66002    226.26599      0.67534      1246.17    272.47607    973.69389 
  193000    20000    699690.43    374.65365    65.728459      0.67534    1221.5808    253.07354    968.50727 
  194000    20000    699690.43      374.485    164.26743      0.67534    1234.4708    266.39954     968.0713 
  195000    20000    699690.43    379.29271   -149.79259      0.67534    1241.0908    260.59119    980.49959 
  196000    20000    699690.43    377.33659    110.39442      0.67534    1245.7363     270.2934    975.44287 
  197000    20000    699690.43    370.89838    108.52323      0.67534    1223.7049    264.90526    958.79964 
  198000    20000    699690.43     372.0429    235.42534      0.67534    1223.5988    261.84049     961.7583 
  199000    20000    699690.43    372.73754   -191.70909      0.67534    1224.1075    260.55349    963.55399 
  200000    20000    699690.43    374.30796     12.84393      0.67534    1235.9994    268.38578    967.61364 
  201000    20000    699690.43    375.62568    19.576659      0.67534    1247.2286    276.20853    971.02003 
  202000    20000    699690.43     372.7298     101.6177      0.67534    1238.1567    274.62275    963.53398 
  203000    20000    699690.43     376.2639   -26.264957      0.67534    1237.5009    264.83097    972.66989 
  204000    20000    699690.43    371.51648   -76.114207      0.67534    1226.7432    266.34576    960.39747 
  205000    20000    699690.43    373.27268     2.436518      0.67534     1229.011    264.07359    964.93737 
  206000    20000    699690.43    372.95318    122.59777      0.67534    1229.9755    265.86402    964.11144 
  207000    20000    699690.43    372.96683   -144.69543      0.67534    1236.2045    272.05774    964.14673 
  208000    20000    699690.43    375.14468    32.828803      0.67534    1241.5666    271.78998    969.77662 
  209000    20000    699690.43     373.0674   -241.49124      0.67534    1226.7597    262.35296    964.40669 
  210000    20000    699690.43    373.88481    19.579628      0.67534    1220.4545    253.93474    966.51978 
  211000    20000    699690.43    372.12418   -8.6613853      0.67534     1228.711    266.74264     961.9684 
  212000    20000    699690.43    375.56133    50.745099      0.67534     1229.211    258.35729     970.8537 
  213000    20000    699690.43    375.29229    81.096626      0.67534    1236.9156    266.75734    970.15822 
  214000    20000    699690.43    375.41827    45.997165      0.67534    1248.6545    278.17062    970.48388 
  215000    20000    699690.43    374.92678    49.334738      0.67534    1227.7696    258.55629    969.21333 
  216000    20000    699690.43    371.21857   -161.41185      0.67534    1220.0149     260.3876    959.62734 
  217000    20000    699690.43    374.50474    52.154885      0.67534    1241.9744    273.85204    968.12233 
  218000    20000    699690.43    370.08939    38.316089      0.67534    1226.7652    270.05691    956.70832 
  219000    20000    699690.43    375.58444   -138.32773      0.67534    1228.9014    257.98795    970.91345 
  220000    20000    699690.43    372.29199    -82.47679      0.67534    1223.7554    261.35321    962.40221 
  221000    20000    699690.43    374.49217   -12.625351      0.67534    1229.5627    261.47289    968.08985 
  222000    20000    699690.43    371.01037   -58.259553      0.67534    1222.5336     263.4445    959.08913 
  223000    20000    699690.43    370.77193   -6.5687944      0.67534    1216.6191     258.1463    958.47276 
  224000    20000    699690.43    374.33635   -39.395978      0.67534     1230.447    262.75997    967.68704 
  225000    20000    699690.43    373.84832    59.839043      0.67534    1227.7079    261.28246    966.42545 
  226000    20000    699690.43    374.56858    41.028374      0.67534    1242.2573    273.96998    968.28736 
  227000    20000    699690.43    374.02234    144.22019      0.67534    1227.6573    260.78204    966.87529 
  228000    20000    699690.43    373.18631    10.738251      0.67534    1227.4105    262.69645     964.7141 
  229000    20000    699690.43    373.64452   -99.223308      0.67534    1232.0036    266.10496     965.8986 
  230000    20000    699690.43    374.34286   -96.136858      0.67534    1232.0423     264.3384    967.70385 
  231000    20000    699690.43    374.51316   -190.33314      0.67534    1234.9476    266.80351     968.1441 
  232000    20000    699690.43    373.22128   -12.666925      0.67534    1232.4354    267.63089    964.80448 
  233000    20000    699690.43    375.77175    20.297886      0.67534    1235.6198    264.22213    971.39766 
  234000    20000    699690.43    373.02784    106.17859      0.67534    1228.4894    264.18494    964.30445 
  235000    20000    699690.43    370.69725   -128.49765      0.67534    1222.0478    263.76813     958.2797 
  236000    20000    699690.43    373.55687   -223.11899      0.67534    1239.3195    273.64748    965.67203 
  237000    20000    699690.43    373.52996    28.283079      0.67534    1226.5002    260.89776    965.60244 
  238000    20000    699690.43    376.15243   -225.83684      0.67534    1243.3591     270.9774    972.38173 
  239000    20000    699690.43    374.11984    16.666239      0.67534    1227.2032    260.07582    967.12734 
  240000    20000    699690.43    375.30584    91.567531      0.67534    1237.2826    267.08937    970.19325 
  241000    20000    699690.43    375.94884   -69.671397      0.67534    1230.5146    258.65914    971.85544 
  242000    20000    699690.43    371.97199    74.255758      0.67534     1228.149    266.57399    961.57499 
  243000    20000    699690.43    367.20185    4.6737169      0.67534    1214.9624    265.71855    949.24382 
  244000    20000    699690.43    373.92868   -50.342803      0.67534    1223.6859    257.05273    966.63318 
  245000    20000    699690.43    372.86041   -69.481868      0.67534    1234.5481    270.67647     963.8716 
  246000    20000    699690.43    374.48744   -131.04813      0.67534    1246.4002    278.32256    968.07762 
  247000    20000    699690.43    370.58296    61.450527      0.67534    1216.5664    258.58219    957.98424 
  248000    20000    699690.43    375.14279   -17.311168      0.67534    1226.0384    256.26665    969.77174 
  249000    20000    699690.43    372.99708   -225.63754      0.67534    1231.2557    267.03081    964.22491 
  250000    20000    699690.43    376.26197    23.830435      0.67534    1234.6235    261.95861     972.6649 
  251000    20000    699690.43    376.73998   -118.67918      0.67534    1234.1951    260.29453    973.90058 
  252000    20000    699690.43    369.16696   -87.447286      0.67534    1210.6605     256.3367    954.32378 
  253000    20000    699690.43     370.5669    28.127615      0.67534    1232.3563    274.41355    957.94274 
  254000    20000    699690.43    374.55712   -105.02039      0.67534    1241.0728    272.81509    968.25775 
  255000    20000    699690.43    371.72408    39.326774      0.67534    1228.9587    268.02457    960.93411 
  256000    20000    699690.43    371.30163    86.903901      0.67534    1228.6844    268.84233    959.84206 
  257000    20000    699690.43    373.60106    -201.3498      0.67534    1229.7419     263.9557    965.78625 
  258000    20000    699690.43    370.46269    92.535657      0.67534    1221.5705     263.8971    957.67335 
  259000    20000    699690.43    371.44029   -67.192937      0.67534    1231.3741    271.17363     960.2005 
  260000    20000    699690.43    374.52082   -148.44593      0.67534    1237.8515    269.68761     968.1639 
  261000    20000    699690.43    373.48142    107.16902      0.67534     1231.044    265.56702    965.47697 
  262000    20000    699690.43    374.09178    122.87694      0.67534    1233.5952     266.5404    967.05479 
  263000    20000    699690.43    372.93143    66.846034      0.67534    1226.0212    261.96598    964.05522 
  264000    20000    699690.43    372.00175    181.49777      0.67534    1231.8158    270.16388    961.65193 
  265000    20000    699690.43    375.67433    6.0405297      0.67534    1244.6156    273.46974    971.14581 
  266000    20000    699690.43    374.94249   -19.028404      0.67534    1241.1217     271.8677    969.25395 
  267000    20000    699690.43    373.56657    16.537913      0.67534    1230.7914    265.09434    965.69708 
  268000    20000    699690.43    374.24243   -257.61578      0.67534    1230.1696    262.72537    967.44424 
  269000    20000    699690.43    373.84155    85.393408      0.67534    1233.1664     266.7585    966.40793 
  270000    20000    699690.43    377.73243    -258.4362      0.67534    1243.5952    267.12906    976.46614 
  271000    20000    699690.43    375.67108   -126.70473      0.67534    1236.5058    265.36836    971.13741 
  272000    20000    699690.43    375.37877   -56.247733      0.67534    1234.4124    264.03067    970.38175 
  273000    20000    699690.43     372.6201   -111.73952      0.67534    1225.4413    262.19094    963.25041 
  274000    20000    699690.43    371.50967    60.113848      0.67534    1227.7022    267.32233    960.37986 
  275000    20000    699690.43    371.93311    52.162099      0.67534    1229.9551    268.48063    961.47447 
  276000    20000    699690.43    371.71396   -135.83144      0.67534    1223.3619    262.45398    960.90797 
  277000    20000    699690.43    370.68256   -9.4379766      0.67534    1223.5511    265.30936    958.24171 
  278000    20000    699690.43    376.28557    77.837424      0.67534    1232.8391    260.11318    972.72592 
  279000    20000    699690.43    374.46035   -6.1433786      0.67534    1224.6281    256.62052    968.00758 
  280000    20000    699690.43     372.0138   -45.255881      0.67534    1221.7833     260.1002    961.68308 
  281000    20000    699690.43    375.42034   -9.3368599      0.67534    1234.1587     263.6695    970.48922 
  282000    20000    699690.43    371.58016    49.220664      0.67534    1220.3069    259.74479    960.56208 
  283000    20000    699690.43    377.38357    106.68687      0.67534    1233.5119    257.94755    975.56432 
  284000    20000    699690.43    378.17256    73.267185      0.67534    1236.9947    259.39079    977.60392 
  285000    20000    699690.43    370.05364     73.46613      0.67534    1219.5085    262.89261    956.61592 
  286000    20000    699690.43    374.20153    144.62908      0.67534    1233.9213    266.58283    967.33852 
  287000    20000    699690.43    373.59115    114.32416      0.67534    1236.3679    270.60728    965.76063 
  288000    20000    699690.43    371.87243    51.480044      0.67534    1225.0713    263.75369    961.31762 
  289000    20000    699690.43    378.99294   -48.707788      0.67534    1242.1994    262.47476    979.72467 
  290000    20000    699690.43    375.91654    122.74989      0.67534    1242.3693    270.59739    971.77195 
  291000    20000    699690.43    371.14794   -102.26833      0.67534    1223.3976    263.95284    959.44476 
  292000    20000    699690.43     373.0187    -54.04331      0.67534    1226.5729    262.29205    964.28082 
  293000    20000    699690.43    375.59163    302.79289      0.67534    1235.3174    264.38533    970.93203 
  294000    20000    699690.43    372.52123    139.71794      0.67534     1233.744    270.74921    962.99482 
  295000    20000    699690.43    371.54653    204.29321      0.67534    1224.4731    263.99797    960.47515 
  296000    20000    699690.43    372.71498   -201.93087      0.67534    1227.4045    263.90882    963.49567 
  297000    20000    699690.43    372.19566   -96.265359      0.67534    1223.7935     261.6403    962.15318 
  298000    20000    699690.43    371.25151    76.503747      0.67534    1221.5814     261.8689     959.7125 
  299000    20000    699690.43    375.28861    68.074795      0.67534    1229.2388    259.09014     970.1487 
  300000    20000    699690.43     373.9729    140.41904      0.67534    1228.4448    261.69734     966.7475 
  301000    20000    699690.43    374.68859    94.575121      0.67534    1230.1973    261.59973     968.5976 
  302000    20000    699690.43    376.76819    129.84419      0.67534     1249.782    275.80844    973.97351 
  303000    20000    699690.43    373.48457    68.208443      0.67534    1243.2824    277.79726    965.48512 
  304000    20000    699690.43    371.91452    71.968036      0.67534    1228.4158    266.98939    961.42642 
  305000    20000    699690.43    370.31227    135.63981      0.67534    1230.1055      272.821     957.2845 
  306000    20000    699690.43    374.49167    281.88996      0.67534    1233.2072    265.11863    968.08854 
  307000    20000    699690.43    375.87577   -175.96155      0.67534    1243.5511    271.88462    971.66653 
  308000    20000    699690.43    373.57865   -41.867106      0.67534    1236.0174    270.28912    965.72833 
  309000    20000    699690.43    375.76176    105.43108      0.67534    1239.9626    268.59073    971.37183 
  310000    20000    699690.43    372.93074   -9.6614442      0.67534      1238.14    274.08662    964.05343 
  311000    20000    699690.43     371.2583   -6.5248291      0.67534    1235.6329     275.9028    959.73006 
  312000    20000    699690.43    369.09987    9.3224116      0.67534    1222.8463    268.69599    954.15035 
  313000    20000    699690.43    369.70057    345.81957      0.67534    1218.4317    262.72849     955.7032 
  314000    20000    699690.43    375.26861    96.279956      0.67534    1234.2058    264.10881    970.09699 
  315000    20000    699690.43    372.99197    15.260377      0.67534    1231.4879    267.27623    964.21171 
  316000    20000    699690.43    375.26075    169.78957      0.67534    1239.9996    269.92292    970.07668 
  317000    20000    699690.43    371.65312   -96.734076      0.67534      1224.71     263.9593    960.75068 
  318000    20000    699690.43    373.19455   -105.34249      0.67534    1219.9733    255.23787    964.73539 
  319000    20000    699690.43    373.36545    58.302303      0.67534    1229.2462    264.06903    965.17718 
  320000    20000    699690.43    374.07426    -61.84144      0.67534    1241.8126    274.80311    967.00952 
  321000    20000    699690.43    373.65112   -78.438852      0.67534    1227.8301    261.91444    965.91566 
  322000    20000    699690.43     371.8049   -188.59534      0.67534    1230.2837    269.14068    961.14303 
  323000    20000    699690.43    370.83031    125.85206      0.67534    1228.5302    269.90658    958.62367 
  324000    20000    699690.43    376.95915   -193.31385      0.67534    1248.3001    273.83295    974.46716 
  325000    20000    699690.43     376.4937   -107.77286      0.67534    1231.5448    258.28089    973.26395 
  326000    20000    699690.43    373.23318    103.10926      0.67534    1235.0482    270.21299    964.83525 
  327000    20000    699690.43     373.4953   -89.223973      0.67534    1238.2009    272.68809    965.51285 
  328000    20000    699690.43    370.67567    84.306106      0.67534    1223.7028    265.47894    958.22389 
  329000    20000    699690.43     373.3425    48.673834      0.67534    1243.0609    277.94303    965.11785 
  330000    20000    699690.43    371.76774    231.62152      0.67534    1226.1292    265.08221    961.04698 
  331000    20000    699690.43    376.62039    136.72309      0.67534    1247.8446    274.25319    973.59143 
  332000    20000    699690.43    371.59511   -168.22424      0.67534    1234.7339    274.13321    960.60073 
  333000    20000    699690.43    370.83934    36.755851      0.67534     1228.853    270.20604      958.647 
  334000    20000    699690.43    370.65091    42.216611      0.67534    1228.3473    270.18736     958.1599 
  335000    20000    699690.43    369.39396   -215.89793      0.67534    1223.8694    268.95879    954.91058 
  336000    20000    699690.43    370.92282   -22.601517      0.67534    1219.7151    260.85228    958.86281 
  337000    20000    699690.43    375.84385    -25.51808      0.67534    1242.8837    271.29969    971.58402 
  338000    20000    699690.43    375.84129    109.57759      0.67534    1243.0136    271.43619    971.57741 
  339000    20000    699690.43    373.69165   -166.04408      0.67534     1223.973    257.95261    966.02044 
  340000    20000    699690.43    374.85414   -106.43362      0.67534    1226.0249    256.99933    969.02555 
  341000    20000    699690.43    372.77682    49.031846      0.67534    1234.5222    270.86668    963.65553 
  342000    20000    699690.43    376.85699   -11.355957      0.67534    1240.4603    266.25727    974.20306 
  343000    20000    699690.43    369.77977   -252.03692      0.67534    1214.3195    258.41155    955.90793 
  344000    20000    699690.43    372.22352     88.17712      0.67534    1228.2826    266.05739     962.2252 
  345000    20000    699690.43    376.88633    127.61586      0.67534    1248.3532    274.07427    974.27892 
  346000    20000    699690.43    371.15445    16.113737      0.67534    1224.5713    265.10971     959.4616 
  347000    20000    699690.43    373.94115   -68.575837      0.67534    1234.6733    268.00789    966.66542 
  348000    20000    699690.43    370.39454    5.7627747      0.67534    1235.8627    278.36558    957.49716 
  349000    20000    699690.43    374.67085   -108.10429      0.67534    1231.9998    263.44809    968.55173 
  350000    20000    699690.43    372.29385    65.608404      0.67534     1237.251    274.84401    962.40703 
  351000    20000    699690.43    369.01428   -91.095872      0.67534    1219.6657    265.73665    953.92909 
  352000    20000    699690.43    375.50914   -55.209913      0.67534    1227.3745    256.65574    970.71878 
  353000    20000    699690.43    375.38434   -126.93964      0.67534    1230.3135    259.91733    970.39616 
  354000    20000    699690.43    374.43384   -205.26568      0.67534    1237.2069    269.26781    967.93904 
  355000    20000    699690.43    374.02367   -108.45568      0.67534    1230.3061    263.42739    966.87874 
  356000    20000    699690.43    375.22181    71.304819      0.67534    1236.1654    266.18934    969.97602 
  357000    20000    699690.43    373.94008    38.540777      0.67534    1230.6207    263.95804    966.66264 
  358000    20000    699690.43    373.46189     -162.847      0.67534    1220.8388    255.41232    965.42648 
  359000    20000    699690.43    370.75074    6.7377583      0.67534    1224.1264    265.70843    958.41797 
  360000    20000    699690.43    375.67041    298.53691      0.67534    1240.4273    269.29163    971.13569 
  361000    20000    699690.43     369.7462   -90.434725      0.67534    1219.9352    264.11403    955.82115 
  362000    20000    699690.43    371.96693    -160.3913      0.67534    1228.1878    266.62589     961.5619 
  363000    20000    699690.43    373.76915    72.520873      0.67534    1236.9385    270.71776    966.22078 
  364000    20000    699690.43    372.83197    73.675793      0.67534    1232.9982    269.20007     963.7981 
  365000    20000    699690.43    371.69289    25.084825      0.67534    1226.7571    265.90361    960.85349 
  366000    20000    699690.43    369.62917     222.5345      0.67534    1224.1306    268.61198    955.51863 
  367000    20000    699690.43     372.9621    -3.481648      0.67534     1225.968     261.8335     964.1345 
  368000    20000    699690.43    377.79318   -31.253849      0.67534    1238.4687     261.8455    976.62318 
  369000    20000    699690.43    378.35833   -167.52876      0.67534    1241.4266     263.3425    978.08415 
  370000    20000    699690.43    375.43767    93.784457      0.67534    1243.2112    272.67715    970.53403 
  371000    20000    699690.43    370.46842       129.92      0.67534    1220.8243    263.13617    957.68814 
  372000    20000    699690.43    374.42472    119.19776      0.67534    1232.8453     264.9298    967.91548 
  373000    20000    699690.43    372.71097   -58.120833      0.67534    1229.9376    266.45228    963.48531 
  374000    20000    699690.43    370.57883   -43.385166      0.67534    1222.6766    264.70304    957.97356 
  375000    20000    699690.43     375.6984    98.822124      0.67534    1233.5106    262.30252    971.20803 
  376000    20000    699690.43    375.43166     116.1391      0.67534    1232.5214    262.00288     970.5185 
  377000    20000    699690.43    371.96732   -9.7721378      0.67534     1240.024    278.46111    961.56292 
  378000    20000    699690.43    371.12777   -117.38103      0.67534    1220.0023     260.6097    959.39261 
  379000    20000    699690.43    370.61865   -80.701129      0.67534    1231.8543     273.7778    958.07649 
  380000    20000    699690.43    379.75952   -261.96554      0.67534    1247.6534    265.94712    981.70632 
  381000    20000    699690.43    372.88129   -99.036368      0.67534    1224.6547    260.72916    963.92559 
  382000    20000    699690.43    371.01103   -112.71732      0.67534    1214.5004     255.4096    959.09083 
  383000    20000    699690.43    373.45645    64.990609      0.67534    1228.6978    263.28539    965.41242 
  384000    20000    699690.43    374.17311    65.716335      0.67534    1235.0106    267.74551    967.26505 
  385000    20000    699690.43    375.12289    79.016569      0.67534    1242.3856    272.66531     969.7203 
  386000    20000    699690.43    370.45506   -87.503934      0.67534    1224.7085    267.05494     957.6536 
  387000    20000    699690.43    375.09447   -24.345896      0.67534    1231.6646    262.01778    969.64682 
  388000    20000    699690.43    372.34853    202.64632      0.67534    1238.4279    275.87956    962.54838 
  389000    20000    699690.43    371.07771    25.553708      0.67534    1213.9161    254.65293    959.26322 
  390000    20000    699690.43    376.50605    93.476164      0.67534    1230.8439    257.54802    973.29587 
  391000    20000    699690.43    371.76032    -248.0597      0.67534    1213.0291    252.00135    961.02779 
  392000    20000    699690.43    374.12288   -106.02334      0.67534    1224.9849    257.84973    967.13519 
  393000    20000    699690.43    371.86799   -16.658557      0.67534    1228.8428    267.53671    961.30614 
  394000    20000    699690.43    372.69697    144.24251      0.67534    1226.3656    262.91653    963.44912 
  395000    20000    699690.43    369.53552   -80.281826      0.67534    1218.6239    263.34738    955.27654 
  396000    20000    699690.43    374.96745    74.766429      0.67534    1243.9256    274.60717    969.31848 
  397000    20000    699690.43    370.45702   -29.607737      0.67534    1221.8615    264.20279    957.65868 
  398000    20000    699690.43    372.70899    76.474408      0.67534     1230.258    266.77778    963.48018 
  399000    20000    699690.43    372.04293   -68.940538      0.67534    1233.3252    271.56681    961.75838 
  400000    20000    699690.43    370.58454    65.776892      0.67534    1228.1438    270.15549    957.98833 
  401000    20000    699690.43    371.49917    69.465224      0.67534    1222.0988    261.74605    960.35271 
  402000    20000    699690.43     372.6228   -169.98623      0.67534     1230.526    267.26865    963.25739 
  403000    20000    699690.43    372.02188    57.130247      0.67534     1237.523    275.81907    961.70397 
  404000    20000    699690.43    370.37685  -0.32070013      0.67534    1225.7685    268.31707    957.45143 
  405000    20000    699690.43    373.23894    111.53647      0.67534    1246.0527    281.20258    964.85016 
  406000    20000    699690.43    369.90859   -292.53115      0.67534    1235.4672    279.22625    956.24096 
  407000    20000    699690.43     375.3098   -47.267018      0.67534    1226.7864    256.58292    970.20347 
  408000    20000    699690.43    374.06869    353.16375      0.67534    1237.7814    270.78627     966.9951 
  409000    20000    699690.43    375.16996   -21.228118      0.67534    1236.8929    267.05097    969.84196 
  410000    20000    699690.43    370.85258    25.516575      0.67534    1237.9955    279.31429    958.68122 
  411000    20000    699690.43    375.63491   -42.582855      0.67534    1242.6645    271.62062    971.04391 
  412000    20000    699690.43    376.05029   -196.54199      0.67534    1234.6124    262.49467    972.11769 
  413000    20000    699690.43     371.1299   -113.55235      0.67534    1220.8368    261.43868    959.39811 
  414000    20000    699690.43    374.48125   -31.034695      0.67534    1229.0285    260.96694     968.0616 
  415000    20000    699690.43    376.85885   -39.193608      0.67534    1239.0474    264.83953    974.20787 
  416000    20000    699690.43    374.11388   -95.754326      0.67534    1234.6067    267.49481    967.11193 
  417000    20000    699690.43    374.44009   -115.18099      0.67534    1237.6177    269.66252    967.95522 
  418000    20000    699690.43    374.56373    269.56415      0.67534    1229.5179    261.24304    968.27484 
  419000    20000    699690.43    371.52145    -47.65152      0.67534    1224.9395    264.52923     960.4103 
  420000    20000    699690.43    371.77213   -112.17457      0.67534    1229.6144    268.55605    961.05833 
  421000    20000    699690.43    369.64963   -185.56304      0.67534     1225.014     269.4425    955.57151 
  422000    20000    699690.43    374.02722    5.1807734      0.67534    1232.0789    265.19095    966.88791 
  423000    20000    699690.43    377.72329   -138.13104      0.67534    1241.6465    265.20396    976.44252 
  424000    20000    699690.43     371.8248   -86.436228      0.67534    1230.3333    269.13879    961.19448 
  425000    20000    699690.43    371.71109    153.83727      0.67534    1232.4656    271.56507    960.90054 
  426000    20000    699690.43    369.60495    -76.65328      0.67534    1222.2648    266.80883    955.45601 
  427000    20000    699690.43    372.79967   -10.785724      0.67534    1223.3491    259.63447    963.71459 
  428000    20000    699690.43    374.59804    87.913507      0.67534    1228.7803    260.41679    968.36352 
  429000    20000    699690.43    374.54227   -92.363524      0.67534    1220.7368    252.51747    968.21936 
  430000    20000    699690.43    375.84855    59.341603      0.67534    1232.8468    261.25061    971.59617 
  431000    20000    699690.43    374.59316    44.764641      0.67534    1227.9495    259.59861    968.35091 
  432000    20000    699690.43    374.43278    28.005818      0.67534    1231.1998    263.26346    967.93631 
  433000    20000    699690.43    373.40133   -167.54369      0.67534    1238.1011    272.83115    965.26995 
  434000    20000    699690.43    373.20436   -167.44307      0.67534    1232.7474    267.98665    964.76075 
  435000    20000    699690.43    373.56339     -217.897      0.67534    1239.1384    273.44954    965.68887 
  436000    20000    699690.43    372.09812   -44.348603      0.67534     1225.829    263.92793    961.90105 
  437000    20000    699690.43    371.64147    -170.9573      0.67534    1225.7138    264.99322    960.72056 
  438000    20000    699690.43    376.66072     130.9562      0.67534     1247.904    274.20825     973.6957 
  439000    20000    699690.43    378.45422    152.88972      0.67534    1249.3202    270.98814    978.33203 
  440000    20000    699690.43    369.89327    22.866879      0.67534    1213.4021    257.20077    956.20133 
  441000    20000    699690.43    377.04011    199.47085      0.67534    1239.4278    264.75131    974.67645 
  442000    20000    699690.43    375.03427    175.40528      0.67534    1230.4261    260.93488    969.49121 
  443000    20000    699690.43    371.65766    13.245119      0.67534    1228.5607     267.7983    960.76241 
  444000    20000    699690.43    372.19419    155.39607      0.67534     1226.803    264.65358     962.1494 
  445000    20000    699690.43    371.41389    205.14836      0.67534    1227.6115    267.47926    960.13225 
  446000    20000    699690.43    370.73856    -81.79732      0.67534    1213.7817    255.39518    958.38647 
  447000    20000    699690.43    378.34014   -163.81461      0.67534    1240.7625    262.72533    978.03713 
  448000    20000    699690.43    374.86294   -137.68686      0.67534    1227.2049    258.15661     969.0483 
  449000    20000    699690.43     374.1685    54.421869      0.67534    1237.0173    269.76423    967.25311 
  450000    20000    699690.43    372.84384    92.897367      0.67534    1229.5882    265.75944    963.82879 
  451000    20000    699690.43    373.88209   -72.368911      0.67534    1224.2128    257.70002    966.51274 
  452000    20000    699690.43    376.34103    118.01347      0.67534    1231.0703    258.20107    972.86927 
  453000    20000    699690.43     374.4845   -171.08036      0.67534    1234.6323    266.56224    968.07002 
  454000    20000    699690.43    375.94372    40.611257      0.67534    1232.8699     261.0277    971.84221 
  455000    20000    699690.43    371.99436   -70.378994      0.67534    1233.2137    271.58092    961.63282 
  456000    20000    699690.43    373.83042   -135.57522      0.67534    1237.7204    271.34124    966.37917 
  457000    20000    699690.43    379.13484   -147.84408      0.67534    1234.5603    254.46882    980.09149 
  458000    20000    699690.43    372.28783    153.34774      0.67534    1223.8805    261.48907    962.39147 
  459000    20000    699690.43     374.4722    234.98347      0.67534    1234.1952    266.15702    968.03822 
  460000    20000    699690.43    371.45928    176.67235      0.67534     1223.284    263.03443    960.24959 
  461000    20000    699690.43    375.76258    145.57895      0.67534    1236.6664    265.29247    971.37394 
  462000    20000    699690.43    368.60116   -111.29657      0.67534    1224.2193    271.35821    952.86114 
  463000    20000    699690.43    373.17217    137.03897      0.67534    1231.3705      266.693    964.67755 
  464000    20000    699690.43    373.73492    65.729369      0.67534     1230.929     264.7967     966.1323 
  465000    20000    699690.43    372.42984   -84.165095      0.67534    1231.4935    268.73498    962.75857 
  466000    20000    699690.43    375.04678   -77.923599      0.67534    1244.1229    274.59933    969.52354 
  467000    20000    699690.43     373.0388   -49.598849      0.67534    1234.9561    270.62331    964.33276 
  468000    20000    699690.43    373.86048    89.551502      0.67534    1228.0579    261.60108    966.45686 
  469000    20000    699690.43    376.58062    -49.74644      0.67534    1247.2606    273.77197    973.48863 
  470000    20000    699690.43    372.17995    -30.55884      0.67534     1231.579     269.4664    962.11257 
  471000    20000    699690.43    373.63822    104.05445      0.67534    1250.2821    284.39975    965.88231 
  472000    20000    699690.43    370.68686    247.16053      0.67534    1217.2145    258.96169    958.25282 
  473000    20000    699690.43    374.25565    112.11202      0.67534    1230.7234    263.24496    967.47842 
  474000    20000    699690.43    372.62647    37.524817      0.67534    1231.9159    268.64901    963.26686 
  475000    20000    699690.43     371.3511  0.049469717      0.67534    1234.7512    274.78122    959.96993 
  476000    20000    699690.43    370.75408   -175.59016      0.67534    1229.3104    270.88385     958.4266 
  477000    20000    699690.43     374.2196    27.285362      0.67534    1233.9388    266.55356    967.38521 
  478000    20000    699690.43    373.14551    161.63431      0.67534    1233.3927    268.78407    964.60862 
  479000    20000    699690.43    375.82795    44.796795      0.67534    1242.5448    271.00184    971.54293 
  480000    20000    699690.43    370.56759    36.229891      0.67534    1233.0747    275.13016    957.94452 
  481000    20000    699690.43    368.78275    32.516891      0.67534    1219.3087     265.9781    953.33058 
  482000    20000    699690.43    375.10132   -114.73403      0.67534     1237.956    268.29148    969.66454 
  483000    20000    699690.43    370.53799   -94.727198      0.67534    1227.7991     269.9311    957.86798 
  484000    20000    699690.43    378.63994    139.15623      0.67534    1251.3281    272.51602    978.81212 
  485000    20000    699690.43    371.93606    14.360398      0.67534    1225.7709    264.28882    961.48211 
  486000    20000    699690.43    374.22596    204.83265      0.67534     1234.311    266.90936    967.40166 
  487000    20000    699690.43    371.50865    17.277803      0.67534     1229.071    268.69379    960.37723 
  488000    20000    699690.43     374.9566    128.54215      0.67534    1247.7446    278.45414    969.29041 
  489000    20000    699690.43    371.97534    13.319481      0.67534    1222.5537    260.97009    961.58365 
  490000    20000    699690.43     370.1442    -68.56301      0.67534    1228.3128    271.46279    956.85001 
  491000    20000    699690.43    371.14684    155.90502      0.67534    1222.6547    263.21279     959.4419 
  492000    20000    699690.43    370.03921   -55.446742      0.67534    1223.2022    266.62364     956.5786 
  493000    20000    699690.43     374.7832    27.179079      0.67534    1242.5885    273.74634    968.84216 
  494000    20000    699690.43    374.55166    127.27907      0.67534    1239.1024    270.85876    968.24361 
  495000    20000    699690.43    373.20764   -148.67096      0.67534    1238.7795    274.01031    964.76922 
  496000    20000    699690.43    369.74715    191.05582      0.67534    1221.9177    266.09405    955.82361 
  497000    20000    699690.43    371.33855   -69.818126      0.67534    1231.2566    271.31907    959.93749 
  498000    20000    699690.43    374.32258    129.13966      0.67534    1229.0426    261.39122    967.65143 
  499000    20000    699690.43    372.91246    147.80334      0.67534    1232.4389    268.43275    964.00616 
  500000    20000    699690.43    372.99697   -148.87539      0.67534    1222.0817    257.85708    964.22463 
  501000    20000    699690.43    377.03496   -45.298069      0.67534    1237.5783    262.91521    974.66313 
  502000    20000    699690.43      373.246    120.41275      0.67534    1226.9622    262.09379     964.8684 
  503000    20000    699690.43    375.18845   -112.25958      0.67534    1229.9551     260.0653    969.88977 
  504000    20000    699690.43    372.88791   -264.45267      0.67534    1238.6701    274.72744    963.94271 
  505000    20000    699690.43    372.66732   -28.874248      0.67534    1213.6139    250.24145    963.37246 
  506000    20000    699690.43     373.3711   -107.64882      0.67534     1233.464     268.2722    965.19178 
  507000    20000    699690.43    373.03616   -194.93757      0.67534    1234.8533    270.52735    964.32594 
  508000    20000    699690.43    368.02331   -66.054347      0.67534    1212.9919    261.62454    951.36735 
  509000    20000    699690.43    375.83075    22.748194      0.67534     1241.353    269.80284    971.55015 
  510000    20000    699690.43    367.43604   -45.011719      0.67534    1208.5844    258.73522    949.84922 
  511000    20000    699690.43     370.7899   -78.556993      0.67534    1227.1775    268.65832    958.51919 
  512000    20000    699690.43    372.74798    2.8045174      0.67534    1226.8172    263.23623    963.58098 
  513000    20000    699690.43    372.38152   -48.994685      0.67534    1225.0545    262.42085    962.63364 
  514000    20000    699690.43    376.76719   -176.44055      0.67534    1238.6845    264.71356    973.97093 
  515000    20000    699690.43    371.41871    233.52151      0.67534    1222.8503    262.70556    960.14473 
  516000    20000    699690.43    372.05733    65.853437      0.67534    1218.2743     256.4787     961.7956 
  517000    20000    699690.43    373.89877   -347.63665      0.67534    1224.8744    258.31857    966.55587 
  518000    20000    699690.43    374.95306   -275.87593      0.67534    1230.2028    260.92153    969.28128 
  519000    20000    699690.43    375.59837   -20.532159      0.67534    1226.8063    255.85686    970.94944 
  520000    20000    699690.43    373.02773   -268.65179      0.67534    1221.2736    256.96946    964.30415 
  521000    20000    699690.43    373.69886   -44.098863      0.67534    1232.3975    266.35843    966.03908 
  522000    20000    699690.43     371.1075   -305.36741      0.67534    1216.4458    257.10553    959.34022 
  523000    20000    699690.43    372.08445    17.245911      0.67534    1234.3506    272.48485     961.8657 
  524000    20000    699690.43    371.91289    62.125537      0.67534    1232.4579    271.03571     961.4222 
  525000    20000    699690.43    373.09373   -10.962156      0.67534    1227.5036    263.02885    964.47478 
  526000    20000    699690.43    372.33697     55.81627      0.67534    1230.6635      268.145    962.51848 
  527000    20000    699690.43    372.25909    128.95041      0.67534    1227.3589    265.04175    962.31715 
  528000    20000    699690.43    370.42962    306.21582      0.67534    1229.4082    271.82034    957.58786 
  529000    20000    699690.43    370.57772    163.39165      0.67534    1223.4915    265.52076    957.97071 
  530000    20000    699690.43    373.34767    57.824298      0.67534    1228.3394    263.20817    965.13123 
  531000    20000    699690.43    375.32216   -25.535155      0.67534    1234.4801    264.24471    970.23544 
  532000    20000    699690.43    372.74461   -174.74615      0.67534    1233.4013    269.82904    963.57226 
  533000    20000    699690.43    372.89067    52.481932      0.67534    1226.0324    262.08254    963.94983 
  534000    20000    699690.43    373.56754    57.420436      0.67534    1233.3008    267.60126    965.69959 
  535000    20000    699690.43    372.48055    445.47766      0.67534    1222.4463    259.55664    962.88966 
  536000    20000    699690.43    371.77861   -97.820725      0.67534    1223.9851    262.91001    961.07508 
  537000    20000    699690.43    370.68826    49.060989      0.67534    1222.9675    264.71111    958.25644 
  538000    20000    699690.43    375.85088   -115.46324      0.67534    1243.9286    272.32643     971.6022 
  539000    20000    699690.43     371.8801  -0.74516057      0.67534    1226.2417     264.9043    961.33744 
  540000    20000    699690.43    372.92309    -117.1867      0.67534    1228.7877    264.75399    964.03366 
  541000    20000    699690.43    372.77853    122.15536      0.67534    1230.6133     266.9533    963.65995 
  542000    20000    699690.43    374.71367    44.958888      0.67534    1234.6219    265.95945    968.66243 
  543000    20000    699690.43    375.11567    141.62314      0.67534    1233.8241    264.12248    969.70162 
  544000    20000    699690.43    375.53581    -94.48143      0.67534    1225.2481    254.46034    970.78773 
  545000    20000    699690.43    369.83217    117.34133      0.67534    1227.6461    271.60268     956.0434 
  546000    20000    699690.43     372.2504    132.78802      0.67534    1230.5251     268.2304    962.29469 
  547000    20000    699690.43    370.72033   -160.31428      0.67534    1217.2123    258.87293    958.33935 
  548000    20000    699690.43    373.95564    22.299659      0.67534    1239.1544    272.45151    966.70287 
  549000    20000    699690.43    373.72147    86.359253      0.67534    1238.7238     272.6263    966.09752 
  550000    20000    699690.43    368.98747   -128.67736      0.67534    1222.2459    268.38618    953.85977 
  551000    20000    699690.43    373.34963    164.74891      0.67534    1238.0979    272.96161    965.13628 
  552000    20000    699690.43    376.88257     114.1075      0.67534    1248.3028    274.03356     974.2692 
  553000    20000    699690.43    370.69131   -372.59294      0.67534    1230.7124    272.44807    958.26434 
  554000    20000    699690.43    372.72925   -77.305726      0.67534    1231.7887    268.25611    963.53255 
  555000    20000    699690.43    374.62143   -179.09977      0.67534    1250.3801    281.95616    968.42397 
  556000    20000    699690.43    373.03861   -299.41812      0.67534    1220.4025    256.07019    964.33228 
  557000    20000    699690.43    374.18268   -202.08228      0.67534    1237.3466    270.05682    967.28979 
  558000    20000    699690.43     374.6145    30.546606      0.67534    1241.4114     273.0053    968.40607 
  559000    20000    699690.43      375.135    22.769693      0.67534    1240.0887    270.33713    969.75159 
  560000    20000    699690.43     376.5748    100.51698      0.67534    1236.8127    263.33914     973.4736 
  561000    20000    699690.43    373.16196   -69.987747      0.67534    1226.0262    261.37505    964.65114 
  562000    20000    699690.43    373.54524   -133.90038      0.67534    1223.8063    258.16436    965.64196 
  563000    20000    699690.43    371.81194    106.40327      0.67534    1228.4403    267.27901    961.16124 
  564000    20000    699690.43    374.32603   -30.985175      0.67534    1235.4599    267.79956    967.66036 
  565000    20000    699690.43    374.62951   -134.36168      0.67534    1230.3514    261.90653    968.44487 
  566000    20000    699690.43     372.0328    -15.91132      0.67534    1232.0016    270.26944    961.73218 
  567000    20000    699690.43    372.22657    4.9815868      0.67534    1231.2968    269.06367     962.2331 
  568000    20000    699690.43    369.91814    59.839502      0.67534    1218.9263    262.66063    956.26563 
  569000    20000    699690.43    374.62144   0.94924414      0.67534    1235.3753    266.95127    968.42401 
  570000    20000    699690.43    373.06671   -81.039174      0.67534    1234.2667    269.86174    964.40491 
  571000    20000    699690.43     374.3018    -96.16731      0.67534    1238.4981    270.90036    967.59772 
  572000    20000    699690.43    371.69787    -51.34396      0.67534    1227.9567     267.0903    960.86636 
  573000    20000    699690.43    376.15457    31.340931      0.67534     1235.914    263.52677    972.38728 
[...]
21834000    20000    699690.43    371.24474    93.098123      0.67534    1228.6242    268.92923    959.69498 
21835000    20000    699690.43     374.6157    88.324489      0.67534    1241.4124    273.00326    968.40918 
21836000    20000    699690.43    371.54027   -1.8181293      0.67534    1228.4178    267.95884    960.45895 
21837000    20000    699690.43    375.18066    137.91437      0.67534    1225.8651    255.99542    969.86964 
21838000    20000    699690.43    372.97038    38.472627      0.67534    1236.2609    272.10498    964.15591 
21839000    20000    699690.43    373.24779   -178.11209      0.67534    1238.3389    273.46588    964.87302 
21840000    20000    699690.43    376.96164    203.59774      0.67534    1237.0778    262.60423    974.47359 
21841000    20000    699690.43    374.69125    1.1987608      0.67534    1229.7759     261.1714    968.60447 
21842000    20000    699690.43    372.44456   -5.8744432      0.67534    1231.4833    268.68672     962.7966 
21843000    20000    699690.43    370.72696    60.893525      0.67534    1225.5016    267.14513     958.3565 
21844000    20000    699690.43     373.6474   -26.910866      0.67534    1239.2254    273.31937    965.90603 
21845000    20000    699690.43    370.01543   -219.85581      0.67534    1229.3531    272.83601    956.51713 
21846000    20000    699690.43    370.66389    117.86274      0.67534    1224.0279    265.83441    958.19346 
21847000    20000    699690.43    372.75959    -129.3968      0.67534    1227.9696    264.35863    963.61099 
21848000    20000    699690.43    370.88478    78.107922      0.67534    1232.8749    274.11039    958.76447 
21849000    20000    699690.43    368.77776   -24.221751      0.67534    1222.7904    269.47274    953.31766 
21850000    20000    699690.43     374.1616     30.16463      0.67534    1227.5062    260.27092    967.23528 
21851000    20000    699690.43    370.56898   -47.443329      0.67534    1229.6006    271.65254     957.9481 
21852000    20000    699690.43    371.29996    25.987897      0.67534    1222.8025    262.96476    959.83775 
21853000    20000    699690.43    373.93772    37.272066      0.67534    1240.2558    273.59921    966.65655 
21854000    20000    699690.43    372.03633    7.9587812      0.67534    1223.1425    261.40117    961.74131 
21855000    20000    699690.43    373.95601    88.401038      0.67534    1223.5303    256.82645    966.70382 
21856000    20000    699690.43    370.05852   -182.49923      0.67534    1226.2792    269.65069    956.62852 
21857000    20000    699690.43    371.30018    3.6738045      0.67534    1229.9264    270.08805     959.8383 
21858000    20000    699690.43    375.18319    156.98988      0.67534    1235.0474    265.17121    969.87618 
21859000    20000    699690.43     372.5526   -154.93587      0.67534    1222.7376    259.66168    963.07591 
21860000    20000    699690.43    372.24201   -39.562809      0.67534    1218.4698     256.1968    962.27302 
21861000    20000    699690.43    371.16585   -46.480758      0.67534    1227.4666    267.97558    959.49105 
21862000    20000    699690.43    374.84644    189.68879      0.67534    1224.4858    255.48017    969.00564 
21863000    20000    699690.43    371.59613   -169.16582      0.67534    1223.8319    263.22848    960.60337 
21864000    20000    699690.43    374.02564    81.831431      0.67534    1237.3454    270.46159    966.88382 
21865000    20000    699690.43    373.24922   -90.759745      0.67534    1229.5862    264.70947    964.87673 
21866000    20000    699690.43    373.53582   -172.21047      0.67534    1225.7835    260.16589    965.61761 
21867000    20000    699690.43    377.08867   -63.214241      0.67534    1236.1022    261.30019    974.80198 
21868000    20000    699690.43     374.3579   -30.339901      0.67534    1236.3494    268.60671    967.74274 
21869000    20000    699690.43    371.75001    38.008482      0.67534    1228.6279    267.62679    961.00115 
21870000    20000    699690.43    371.61569   -90.254104      0.67534    1221.4608    260.80688    960.65393 
21871000    20000    699690.43    375.03049     202.2994      0.67534    1244.3176    274.83613    969.48144 
21872000    20000    699690.43    374.73581   -92.003418      0.67534    1234.6858    265.96616    968.71966 
21873000    20000    699690.43    369.48563   -66.038879      0.67534    1228.5144    273.36679    955.14757 
21874000    20000    699690.43     374.1612   -129.23979      0.67534    1226.3037    259.06942    967.23427 
21875000    20000    699690.43    374.52919   -93.091858      0.67534    1229.6064    261.42088    968.18553 
21876000    20000    699690.43    374.50975   -83.861078      0.67534    1238.3498    270.21457    968.13528 
21877000    20000    699690.43    371.07949     258.6344      0.67534    1230.2327    270.96487    959.26781 
21878000    20000    699690.43    370.41565   -199.66025      0.67534    1230.8048    273.25306    957.55172 
21879000    20000    699690.43    375.06829    188.44604      0.67534    1241.1942     271.6151    969.57914 
21880000    20000    699690.43    373.97425   -171.90721      0.67534    1235.5258    268.77486    966.75097 
21881000    20000    699690.43    373.38487     20.47308      0.67534    1234.5135    269.28606    965.22739 
21882000    20000    699690.43    374.87346    74.447671      0.67534    1230.4757    261.40021    969.07551 
21883000    20000    699690.43    371.40969    261.91142      0.67534    1223.5992    263.47777    960.12141 
21884000    20000    699690.43     374.8085    133.83932      0.67534    1247.0129    278.10537    968.90757 
21885000    20000    699690.43    374.10913    182.34529      0.67534    1232.8697    265.77003    967.09964 
21886000    20000    699690.43    371.85366    195.86104      0.67534    1219.0749    257.80578    961.26908 
21887000    20000    699690.43    373.02286    81.017193      0.67534    1232.6531    268.36158    964.29155 
21888000    20000    699690.43    370.71214    61.850552      0.67534    1230.3962    272.07801    958.31818 
21889000    20000    699690.43    371.72033   -159.19607      0.67534    1225.4033    264.47891    960.92442 
21890000    20000    699690.43      372.971    163.09126      0.67534    1232.2957    268.13817     964.1575 
21891000    20000    699690.43    375.27028    7.0187087      0.67534     1233.781    263.67971    970.10131 
21892000    20000    699690.43    377.36871   -67.148718      0.67534    1240.5725     265.0466     975.5259 
21893000    20000    699690.43    369.68256   -76.667098      0.67534    1230.5664     274.9098    955.65664 
21894000    20000    699690.43    372.58116   -308.98488      0.67534    1234.4142     271.2645    963.14973 
21895000    20000    699690.43    373.45493    81.209125      0.67534    1224.5863    259.17778    965.40848 
21896000    20000    699690.43       374.45    130.96195      0.67534    1231.3979    263.41705    967.98081 
21897000    20000    699690.43    372.69484   -25.269507      0.67534    1218.8963    255.45267     963.4436 
21898000    20000    699690.43    376.20712   -5.0991839      0.67534    1236.3025    263.77941    972.52312 
21899000    20000    699690.43    373.05051   -40.689617      0.67534    1233.8154    269.45241    964.36303 
21900000    20000    699690.43    374.59103    -324.7661      0.67534    1226.5456     258.2002     968.3454 
21901000    20000    699690.43    378.30054   -197.83115      0.67534    1238.6217    260.68691    977.93476 
21902000    20000    699690.43    370.32818    -348.9816      0.67534    1216.3043    258.97872    957.32562 
21903000    20000    699690.43     374.1125   -20.949731      0.67534    1241.9921    274.88374    967.10836 
21904000    20000    699690.43    371.61015    -34.97939      0.67534    1226.8618    266.22218    960.63961 
21905000    20000    699690.43    371.41751    52.320898      0.67534    1225.2412    265.09958    960.14161 
21906000    20000    699690.43    372.91638   -61.725254      0.67534    1231.0203    267.00397    964.01631 
21907000    20000    699690.43    374.38589     89.24387      0.67534    1238.2815     270.4664     967.8151 
21908000    20000    699690.43    373.42033    58.335763      0.67534    1228.3082    262.98913    965.31906 
21909000    20000    699690.43    368.76557    116.59804      0.67534    1220.5709    267.28479    953.28615 
21910000    20000    699690.43    375.07591    69.034494      0.67534    1242.5703     272.9715    969.59884 
21911000    20000    699690.43    373.20091    4.2669896      0.67534    1229.7038    264.95194    964.75184 
21912000    20000    699690.43    372.08643   -93.090922      0.67534    1219.3569    257.48606    961.87081 
21913000    20000    699690.43    374.49115    30.299705      0.67534    1235.9046    267.81736     968.0872 
21914000    20000    699690.43    372.78128    53.720281      0.67534    1235.8014    272.13439    963.66706 
21915000    20000    699690.43    370.10366    78.183259      0.67534    1223.6345    266.88927    956.74522 
21916000    20000    699690.43    368.06043    153.57653      0.67534    1223.5859    272.12253    951.46333 
21917000    20000    699690.43     371.5169   -135.61167      0.67534    1222.2291    261.83056    960.39854 
21918000    20000    699690.43    371.74131    95.720315      0.67534    1223.2468    262.26811    960.97865 
21919000    20000    699690.43    375.63495    90.583229      0.67534    1229.1794    258.13542      971.044 
21920000    20000    699690.43    374.76452    112.89105      0.67534    1235.5828    266.78892    968.79389 
21921000    20000    699690.43    375.41756    253.82866      0.67534    1230.4088    259.92679    970.48203 
21922000    20000    699690.43    372.23145    54.165676      0.67534    1225.7224    263.47666     962.2457 
21923000    20000    699690.43    373.54413   -119.14431      0.67534    1234.8434    269.20437    965.63908 
21924000    20000    699690.43    375.62285    12.080152      0.67534    1230.8504    259.83771    971.01273 
21925000    20000    699690.43    371.38372   -66.934956      0.67534    1216.3937    256.33945    960.05427 
21926000    20000    699690.43    373.81525   -146.78331      0.67534    1231.3616    265.02162    966.33995 
21927000    20000    699690.43    374.90845   -124.75414      0.67534    1234.9348    265.76887    969.16596 
21928000    20000    699690.43    374.75554   -134.20307      0.67534    1234.3369    265.56625    968.77067 
21929000    20000    699690.43    375.70145   -80.149779      0.67534    1230.5591    259.34315    971.21591 
21930000    20000    699690.43    372.08068    98.284418      0.67534    1228.8193    266.96337    961.85596 
21931000    20000    699690.43    373.79493   -197.00368      0.67534    1234.8911    268.60367    966.28743 
21932000    20000    699690.43    371.68102   -205.96297      0.67534    1225.3055    264.48271     960.8228 
21933000    20000    699690.43    373.89256    106.71875      0.67534    1232.6184    266.07859    966.53981 
21934000    20000    699690.43    368.96538   -283.30535      0.67534    1215.0217    261.21906    953.80267 
21935000    20000    699690.43    374.25569    99.628315      0.67534     1232.087    264.60844    967.47853 
21936000    20000    699690.43    373.72704    144.36468      0.67534    1233.9326    267.82072    966.11192 
21937000    20000    699690.43    374.83193    60.105406      0.67534    1235.6184    266.65025    968.96814 
21938000    20000    699690.43    371.25646    83.209979      0.67534     1219.818    260.09268    959.72528 
21939000    20000    699690.43    375.84793    130.22945      0.67534    1237.5937    265.99909    971.59457 
21940000    20000    699690.43    375.16849   -58.652718      0.67534    1232.2142    262.37606    969.83817 
21941000    20000    699690.43      373.517    83.621546      0.67534    1229.5087    263.93971    965.56895 
21942000    20000    699690.43     373.4494     14.03333      0.67534    1231.4771    266.08293    965.39421 
21943000    20000    699690.43    375.28029   -128.73712      0.67534    1241.1483    271.02112     970.1272 
21944000    20000    699690.43    372.98975    27.120326      0.67534     1234.942    270.73607    964.20598 
21945000    20000    699690.43    377.21383    184.23856      0.67534    1237.3102    262.18471    975.12553 
21946000    20000    699690.43    371.24607    37.727613      0.67534    1209.9089    250.21044    959.69842 
21947000    20000    699690.43    374.45158    27.585117      0.67534    1231.2684    263.28351     967.9849 
21948000    20000    699690.43    372.07683   -16.223394      0.67534    1223.9718    262.12582      961.846 
21949000    20000    699690.43    371.06005    16.236295      0.67534    1214.2899    255.07235    959.21756 
21950000    20000    699690.43    374.43111    -42.28071      0.67534    1229.8032    261.87119      967.932 
21951000    20000    699690.43    370.19005   -5.2065374      0.67534    1218.7836    261.81508    956.96853 
21952000    20000    699690.43    373.52011    190.86424      0.67534    1217.4585    251.88148    965.57699 
21953000    20000    699690.43    370.99415    151.88241      0.67534     1218.663     259.6158    959.04719 
21954000    20000    699690.43    376.02755    56.106576      0.67534    1236.8578    264.79888    972.05891 
21955000    20000    699690.43    378.33681     37.41293      0.67534    1248.7612    270.73268    978.02852 
21956000    20000    699690.43    372.33796    118.02582      0.67534    1221.4905     258.9694    962.52105 
21957000    20000    699690.43    374.19771    46.663759      0.67534     1225.334    258.00533    967.32864 
21958000    20000    699690.43    371.14824   -251.93562      0.67534    1222.8618    263.41625    959.44554 
21959000    20000    699690.43    374.74836   -48.543456      0.67534    1232.5273    263.77514    968.75212 
21960000    20000    699690.43    377.53327   -94.372518      0.67534    1241.5031    265.55176     975.9513 
21961000    20000    699690.43    372.21216   -194.64861      0.67534    1236.4268    274.23096    962.19585 
21962000    20000    699690.43    372.81844    70.412112      0.67534    1229.0775    265.31434    963.76313 
21963000    20000    699690.43    373.41066    285.65241      0.67534    1231.4774    266.18334    965.29407 
21964000    20000    699690.43     373.0036    30.160837      0.67534    1227.5219    263.28014    964.24177 
21965000    20000    699690.43    373.39292    202.49471      0.67534    1232.4439    267.19573    965.24819 
21966000    20000    699690.43    371.82326   -77.130929      0.67534    1221.9564    260.76594     961.1905 
21967000    20000    699690.43    369.60477   -52.848453      0.67534     1217.594     262.1385    955.45555 
21968000    20000    699690.43    372.91619   -3.3669835      0.67534    1225.3211    261.30531    964.01581 
21969000    20000    699690.43    374.36801     58.62183      0.67534    1237.2644    269.49557    967.76888 
21970000    20000    699690.43    372.50038   -110.85222      0.67534    1233.4309    270.49001    962.94091 
21971000    20000    699690.43    373.08463   -22.225175      0.67534    1231.0689    266.61763    964.45124 
21972000    20000    699690.43    372.97985    200.00416      0.67534    1228.0936    263.91322    964.18038 
21973000    20000    699690.43     371.8588    105.06085      0.67534    1228.8631    267.58069    961.28237 
21974000    20000    699690.43    371.54144   -11.883345      0.67534    1228.4089     267.9469    960.46197 
21975000    20000    699690.43    376.10673    89.007964      0.67534    1241.4786    269.21505    972.26359 
21976000    20000    699690.43    369.33299   -113.32965      0.67534    1219.9882    265.23522    954.75298 
21977000    20000    699690.43    370.95954   -6.8687062      0.67534    1225.4752    266.51745    958.95772 
21978000    20000    699690.43    373.25783    167.09339      0.67534    1235.6745    270.77552    964.89899 
21979000    20000    699690.43    371.49014    67.458904      0.67534    1220.5528    260.22345    960.32936 
21980000    20000    699690.43    370.49636   -45.945233      0.67534    1229.4453     271.6849    957.76037 
21981000    20000    699690.43    373.82425    36.671023      0.67534    1234.2105    267.84729    966.36323 
21982000    20000    699690.43    371.05301    80.967402      0.67534    1220.3589     261.1595    959.19936 
21983000    20000    699690.43    372.93688    104.16743      0.67534    1232.8771    268.80781     964.0693 
21984000    20000    699690.43    374.10753    64.115833      0.67534    1241.2391    274.14358    967.09552 
21985000    20000    699690.43    372.56692    121.34307      0.67534    1235.8371    272.72417    963.11292 
21986000    20000    699690.43    372.10895    204.76786      0.67534    1230.2405    268.31149    961.92903 
21987000    20000    699690.43    376.18104   -164.58241      0.67534    1237.2799    264.82422     972.4557 
21988000    20000    699690.43    374.50259    29.006322      0.67534    1233.5088    265.39203    968.11677 
21989000    20000    699690.43    374.69861   -90.466954      0.67534    1225.3372    256.71374    968.62349 
21990000    20000    699690.43    372.24997   -90.541603      0.67534    1227.0108    264.71726    962.29358 
21991000    20000    699690.43    375.90862   -39.257306      0.67534    1231.6362    259.88471    971.75146 
21992000    20000    699690.43    371.45115    165.02574      0.67534    1223.9544    263.72579    960.22857 
21993000    20000    699690.43    369.88066   -149.09535      0.67534     1224.633     268.4643    956.16873 
21994000    20000    699690.43    371.70101   -105.49451      0.67534    1233.8453    272.97078    960.87449 
21995000    20000    699690.43    372.42039    138.17528      0.67534    1235.8786    273.14442    962.73414 
21996000    20000    699690.43    373.14677   -31.452551      0.67534    1221.8621    257.25027    964.61188 
21997000    20000    699690.43    371.08155   -38.034989      0.67534       1231.3    272.02682    959.27314 
21998000    20000    699690.43    369.35297    4.6697851      0.67534    1216.6454    261.84076    954.80462 
21999000    20000    699690.43    373.14156     38.54459      0.67534    1236.4384    271.83995     964.5984 
22000000    20000    699690.43    372.13651   -131.60296      0.67534    1226.7147    264.71441    962.00029 
Loop time of 97664.2 on 24 procs for 22000000 steps with 20000 atoms

Performance: 9.731 ns/day, 2.466 hours/ns, 225.262 timesteps/s
99.9% CPU use with 24 MPI tasks x no OpenMP threads

MPI task timing breakdown:
Section |  min time  |  avg time  |  max time  |%varavg| %total
---------------------------------------------------------------
Pair    | 81888      | 82696      | 84341      | 221.0 | 84.67
Bond    | 2368.6     | 2400.6     | 2431.8     |  44.7 |  2.46
Neigh   | 1940.2     | 1941.9     | 1943.2     |   1.9 |  1.99
Comm    | 5787.4     | 7400.3     | 8301.3     | 742.6 |  7.58
Output  | 5.6913     | 10.974     | 11.211     |  33.2 |  0.01
Modify  | 2963.1     | 3043.6     | 3137.3     | 121.6 |  3.12
Other   |            | 170.4      |            |       |  0.17

Nlocal:    833.333 ave 863 max 806 min
Histogram: 1 4 3 0 4 4 4 1 1 2
Nghost:    6453.71 ave 6517 max 6357 min
Histogram: 1 0 0 2 1 8 6 2 3 1
Neighs:    202096 ave 215641 max 190977 min
Histogram: 1 2 5 1 6 4 3 0 1 1

Total # of neighbors = 4850295
Ave neighs/atom = 242.515
Ave special neighs/atom = 4.8
Neighbor list builds = 202895
Dangerous builds = 0

if "${do_shake} == 1" then      "unfix      shk"
unfix           NVT_sllod

# Write Data File
write_data      data.${norun}.Bulk_NVT nocoeff nofix
write_data      data.1.Bulk_NVT nocoeff nofix

shell           mv log.lammps log.${norun}.Bulk_NVT
shell           mv log.lammps log.1.Bulk_NVT
WARNING: Shell command 'mv' failed with error 'No such file or directory' (../input.cpp:1303)

Please see the log.cite file for references relevant to this simulation

Total wall time: 27:08:16
