LAMMPS (3 Mar 2020)
echo            both

#----------------------------------------------#
#-------------- BULK SIMULATION ---------------#
#----------------------------------------------#

# ---------- INPUT ----------
# Molecule data
variable        MolData     string "Decane.TraPPE-UA"
variable        N           equal 2000                   # Nr. of molecules
# Read data
variable        i_ReadData  equal 0                     # 0 - create atoms, 1,2,3,... - read data file
variable        file        string "Bulk_NVT"           # Data file to read (just file ending)
# State point
variable        tmp         equal 373.15
variable        rho_in      equal 0.67534
# Strain rate
variable        s_rate      equal 1.0e+10
# Numerics
variable        dt          equal 0.0005
variable        n_run       equal 22e6                   # NVT run
variable        n_equ       equal 1e4                   # Nr. of ts before production run
variable        c_Tdamp     equal 100                   # Suggested by lammps: 100
# Ensemble string
variable        ensemble    string "NVT"
# Write data
variable        do_set_E    equal 0                     # Scale total Energy at the end of run
# ---------------------------

# ---------- Simulation setup ---------
variable        norun       equal ${i_ReadData}+1
variable        norun       equal 0+1


# Set simulation conditions
units           metal
atom_style      full

dimension       3
atom_modify     map array
boundary        p p p
neighbor        2 multi
neigh_modify    every 2 delay 2 check yes

# Set timestep
timestep        ${dt}
timestep        0.0005

# Define lower start density
variable        rho_start equal 0.5*${rho_in}
variable        rho_start equal 0.5*0.67534

include         ${MolData}.inMolData
include         Decane.TraPPE-UA.inMolData
# -------------------- MolData --------------------
# Molecule:     n-Decane
# Force field:  TraPPE-UA
# Source:       Martin, M. G.; Siepmann, J. I. Transferable Potentials for Phase Equilibria. 1. United-Atom Description of n-Alkanes. The Journal of Physical Chemistry B 102 (14), 2569–2577.

variable        M_molar equal 142.2818

if "${i_ReadData} > 0" then 	"read_data      data.${i_ReadData}.${file}" else 	"variable       L_box equal (($N*${M_molar}*1e24)/(${rho_start}*6.02214076e23))^(1/3)"     "region         SimBox block 0 ${L_box} 0 ${L_box} 0 ${L_box}"     "create_box     4 SimBox bond/types 1 angle/types 3 dihedral/types 4 extra/bond/per/atom 2 extra/angle/per/atom 3 extra/dihedral/per/atom 4 extra/special/per/atom 6"     "molecule       1 ./Decane_UA.molecule"     "create_atoms   0 random ${N} 591 NULL mol 1 701"
variable       L_box equal (($N*${M_molar}*1e24)/(${rho_start}*6.02214076e23))^(1/3)
variable       L_box equal ((2000*${M_molar}*1e24)/(${rho_start}*6.02214076e23))^(1/3)
variable       L_box equal ((2000*142.2818*1e24)/(${rho_start}*6.02214076e23))^(1/3)
variable       L_box equal ((2000*142.2818*1e24)/(0.33767*6.02214076e23))^(1/3)
region         SimBox block 0 ${L_box} 0 ${L_box} 0 ${L_box}
region         SimBox block 0 111.852403851589 0 ${L_box} 0 ${L_box}
region         SimBox block 0 111.852403851589 0 111.852403851589 0 ${L_box}
region         SimBox block 0 111.852403851589 0 111.852403851589 0 111.852403851589
create_box     4 SimBox bond/types 1 angle/types 3 dihedral/types 4 extra/bond/per/atom 2 extra/angle/per/atom 3 extra/dihedral/per/atom 4 extra/special/per/atom 6
Created orthogonal box = (0 0 0) to (111.852 111.852 111.852)
  2 by 3 by 4 MPI processor grid
molecule       1 ./Decane_UA.molecule
Read molecule 1:
  10 atoms with max type 2
  9 bonds with max type 1
  8 angles with max type 1
  7 dihedrals with max type 1
  0 impropers with max type 0
create_atoms   0 random ${N} 591 NULL mol 1 701
create_atoms   0 random 2000 591 NULL mol 1 701
Created 20000 atoms
  create_atoms CPU = 0.00597687 secs

# Include Force Field Parameter
include          TraPPE-UA.parameter
# -------------------- MolData --------------------
# Molecule:     n-Decane
# Force field:  TraPPE
# ----- Sources: -----



# Mass of particeles ( https://de.webqc.org/mmcalc.php )
mass            1 15.0345       # CH3
mass            2 14.0266       # CH2
mass            3 13.0186       # CH
mass            4 12.0107       # C

# Charges of particles
set                 type * charge 0.0
  20000 settings made for charge

# TraPPE FF
# Nonbonded interaction
 pair_style      lj/cut 14
#pair_style      lj/long/coul/long long off 14
pair_coeff      1 1 0.00844499   3.75
pair_coeff      2 2 0.00396397   3.95
pair_coeff      3 3 0.000861733  4.68
pair_coeff      4 4 0.0000430867 6.4

pair_modify     mix arithmetic
pair_modify     tail yes

# kspace_style    ewald/disp 1.0e-4

# Bonded interaction
bond_style      harmonic
bond_coeff      1  9.756926 1.540           # CHARMM
# bond_coeff      1 14.820905 1.540           # GROMOS (4) -> actually parameter for quartic bond
# bond_coeff      1 11.621583 1.540           # OPLS-AA (5)


angle_style     harmonic
angle_coeff     1 2.692917 114
angle_coeff     2 2.692917 112
angle_coeff     3 2.692917 109.47


dihedral_style  fourier
dihedral_coeff  1 3                0.0305941 1 0 -0.00587614 2 180 0.0681905 3 0
dihedral_coeff  2 4 -0.0216347 0 0 0.0369451 1 0 -0.00963850 2 180 0.0380257 3 0
dihedral_coeff  3 1                                                0.0397509 3 0
dihedral_coeff  4 4 -0.0216347 0 0 0.0369451 1 0 -0.00963850 2 180 0.0380257 3 0

# Use of shake algorithm (0 - no, 1 - yes)
variable        do_shake equal 0

# Use multiple time step integrator 'respa'
# run_style       respa 2 2 2 bond 1 angle 2

change_box      all triclinic
  triclinic box = (0 0 0) to (111.852 111.852 111.852) with tilt (0 0 0)

# Set density by setting box length
variable 		factor_L equal "(density / v_rho_in)^(1/3)"
if "${rho_in} == 0 && ${i_ReadData} == 0" then "quit"
if "${rho_in} != 0" then     "change_box 		all x scale ${factor_L} y scale ${factor_L} z scale ${factor_L} remap"
change_box 		all x scale ${factor_L} y scale ${factor_L} z scale ${factor_L} remap
change_box 		all x scale 0.793700502699951 y scale ${factor_L} z scale ${factor_L} remap
change_box 		all x scale 0.793700502699951 y scale 0.793700502699951 z scale ${factor_L} remap
change_box 		all x scale 0.793700502699951 y scale 0.793700502699951 z scale 0.793700502699951 remap
  triclinic box = (11.5375 0 0) to (100.315 111.852 111.852) with tilt (0 0 0)
  triclinic box = (11.5375 11.5375 0) to (100.315 100.315 111.852) with tilt (0 0 0)
  triclinic box = (11.5375 11.5375 11.5375) to (100.315 100.315 100.315) with tilt (0 0 0)

# Set velocity atoms defined by temperature
if "${i_ReadData} == 0" then "velocity all create ${tmp} 685"
velocity all create ${tmp} 685
velocity all create 373.15 685

# ---------- Minimize Eenergy ---------
if "${i_ReadData} == 0" then   "minimize   0.001 1.0e-4 1000 10000"
minimize   0.001 1.0e-4 1000 10000
WARNING: Using 'neigh_modify every 1 delay 0 check yes' setting during minimization (../min.cpp:190)
Neighbor list info ...
  update every 1 steps, delay 0 steps, check yes
  max neighbors/atom: 2000, page size: 100000
  master list distance cutoff = 16
  ghost atom cutoff = 16
  binsize = 8, bins = 12 12 12
  1 neighbor lists, perpetual/occasional/extra = 1 0 0
  (1) pair lj/cut, perpetual
      attributes: half, newton on
      pair build: half/multi/newton/tri
      stencil: half/multi/3d/newton/tri
      bin: standard
Per MPI rank memory allocation (min/avg/max) = 10.71 | 10.92 | 11.13 Mbytes
Step Temp E_pair E_mol TotEng Press 
       0       373.15 7.1429185e+16    18650.198 7.1429185e+16 6.5424455e+17 
     279       373.15   -925.58403     180.0667     219.1029    2236.5433 
Loop time of 1.62163 on 24 procs for 279 steps with 20000 atoms

99.0% CPU use with 24 MPI tasks x no OpenMP threads

Minimization stats:
  Stopping criterion = energy tolerance
  Energy initial, next-to-last, final = 
     7.14291854102e+16     -744.872060326     -745.517330833
  Force two-norm initial, final = 6.54127e+18 6.13927
  Force max component initial, final = 3.26336e+18 1.44721
  Final line search alpha, max atom move = 0.146202 0.211585
  Iterations, force evaluations = 279 340

MPI task timing breakdown:
Section |  min time  |  avg time  |  max time  |%varavg| %total
---------------------------------------------------------------
Pair    | 0.88498    | 1.1257     | 1.3745     |  12.4 | 69.42
Bond    | 0.027142   | 0.03101    | 0.036339   |   1.4 |  1.91
Neigh   | 0.14348    | 0.14379    | 0.14396    |   0.0 |  8.87
Comm    | 0.045426   | 0.29954    | 0.54516    |  24.5 | 18.47
Output  | 0          | 0          | 0          |   0.0 |  0.00
Modify  | 0          | 0          | 0          |   0.0 |  0.00
Other   |            | 0.02159    |            |       |  1.33

Nlocal:    833.333 ave 950 max 744 min
Histogram: 1 6 1 2 5 3 2 2 1 1
Nghost:    6483.58 ave 6631 max 6327 min
Histogram: 3 2 1 3 4 1 2 1 4 3
Neighs:    204347 ave 243205 max 166467 min
Histogram: 2 0 3 5 4 2 2 2 2 2

Total # of neighbors = 4904336
Ave neighs/atom = 245.217
Ave special neighs/atom = 4.8
Neighbor list builds = 17
Dangerous builds = 0

# -------------- MD NVT ---------------
# NpT/NVT Setup
variable        Tdamp equal ${c_Tdamp}*dt
variable        Tdamp equal 100*dt

# Log File
thermo          1000
thermo_style    custom step atoms vol temp press density etotal pe ke

# Ensemble Setup and Shake Fix
if "${do_shake} == 1" then      "fix        shk all shake 1e-5 100 10000 b 2"
fix             NVT all nvt temp ${tmp} ${tmp} ${Tdamp}
fix             NVT all nvt temp 373.15 ${tmp} ${Tdamp}
fix             NVT all nvt temp 373.15 373.15 ${Tdamp}
fix             NVT all nvt temp 373.15 373.15 0.05

# --- Equilibration ---
run             ${n_equ}
run             10000
Per MPI rank memory allocation (min/avg/max) = 9.583 | 9.89 | 10.01 Mbytes
Step Atoms Volume Temp Press Density TotEng PotEng KinEng 
     279    20000    699690.43       373.15    2236.5433      0.67534     219.1029   -745.51733    964.62023 
    1000    20000    699690.43     382.2255     1699.935      0.67534    874.11913   -113.96194    988.08108 
    2000    20000    699690.43    370.45295    573.86575      0.67534    917.72187   -39.926301    957.64817 
    3000    20000    699690.43    374.50218     521.9972      0.67534    977.24802    9.1323123    968.11571 
    4000    20000    699690.43    367.49081    414.95988      0.67534    983.49987    33.509061    949.99081 
    5000    20000    699690.43    373.57122    247.03235      0.67534    1014.1172    48.408113    965.70911 
    6000    20000    699690.43     371.6094     189.0648      0.67534    1015.6288    54.991185    960.63766 
    7000    20000    699690.43    371.38409    403.19658      0.67534     1019.884    59.828798    960.05523 
    8000    20000    699690.43    375.77287    307.51833      0.67534    1032.8471    61.446518    971.40054 
    9000    20000    699690.43    376.95224    67.257096      0.67534    1025.3218    50.872541     974.4493 
   10000    20000    699690.43    374.20952    272.27176      0.67534    1037.6642    70.304987    967.35916 
   10279    20000    699690.43    372.60959    39.896295      0.67534    1034.2501    71.026834    963.22323 
Loop time of 29.3052 on 24 procs for 10000 steps with 20000 atoms

Performance: 14.741 ns/day, 1.628 hours/ns, 341.237 timesteps/s
99.8% CPU use with 24 MPI tasks x no OpenMP threads

MPI task timing breakdown:
Section |  min time  |  avg time  |  max time  |%varavg| %total
---------------------------------------------------------------
Pair    | 22.817     | 23.996     | 25.503     |  14.1 | 81.88
Bond    | 0.73951    | 0.78736    | 0.82711    |   2.4 |  2.69
Neigh   | 0.81922    | 0.82031    | 0.82144    |   0.1 |  2.80
Comm    | 1.9048     | 3.2846     | 4.6253     |  37.7 | 11.21
Output  | 0.00038286 | 0.0004889  | 0.0026677  |   0.0 |  0.00
Modify  | 0.19487    | 0.35538    | 0.49381    |  22.6 |  1.21
Other   |            | 0.06132    |            |       |  0.21

Nlocal:    833.333 ave 858 max 803 min
Histogram: 3 0 2 1 5 3 1 3 3 3
Nghost:    6440.67 ave 6540 max 6346 min
Histogram: 1 1 3 4 2 4 5 2 1 1
Neighs:    202087 ave 214138 max 189822 min
Histogram: 3 0 1 3 6 2 2 5 1 1

Total # of neighbors = 4850086
Ave neighs/atom = 242.504
Ave special neighs/atom = 4.8
Neighbor list builds = 96
Dangerous builds = 0

# --- Actual Run ---
reset_timestep  0

unfix           NVT

# Setup for sllod
fix             NVT_sllod all nvt/sllod temp ${tmp} ${tmp} ${Tdamp}
fix             NVT_sllod all nvt/sllod temp 373.15 ${tmp} ${Tdamp}
fix             NVT_sllod all nvt/sllod temp 373.15 373.15 ${Tdamp}
fix             NVT_sllod all nvt/sllod temp 373.15 373.15 0.05
variable        s_rate_ps equal ${s_rate}*1e-12
variable        s_rate_ps equal 10000000000*1e-12
fix             shear all deform 1 yz erate ${s_rate_ps} remap v
fix             shear all deform 1 yz erate 0.01 remap v

include         in.ThermoOutput_sllod
# Script to write out data for subsequent calculation of transport coefficients

# ----------  General ----------
variable 		dt equal dt
variable        N_atoms equal atoms
variable 		V equal vol
compute         T_deform all temp/deform
thermo_modify   temp T_deform
variable 		T equal c_T_deform
compute         p_deform all pressure T_deform
thermo_modify   press p_deform
variable		p equal c_p_deform
variable		p equal press
variable		pxy equal c_p_deform[4]
variable		pxz equal c_p_deform[5]
variable		pyz equal c_p_deform[6]
variable		rho equal density
variable 		Etot equal etotal
variable 		Ekin equal ke
variable 		Epot equal pe
variable        eta equal -c_p_deform[6]*1e5/v_s_rate
variable        header string "MolType: ${MolData}; TimeStep: ${dt}; No. Atoms: ${N_atoms};"
MolType: Decane.TraPPE-UA; TimeStep: ${dt}; No. Atoms: ${N_atoms};
MolType: Decane.TraPPE-UA; TimeStep: 0.0005; No. Atoms: ${N_atoms};
MolType: Decane.TraPPE-UA; TimeStep: 0.0005; No. Atoms: 20000;

# Print Simulation info to file -> info.dat
print			"MolType: ${MolData}" file info.${ensemble}.${norun}.dat
print			"MolType: ${MolData}" file info.NVT.${norun}.dat
print			"MolType: ${MolData}" file info.NVT.1.dat
MolType: Decane.TraPPE-UA
print			"TimeStep: ${dt}" append info.${ensemble}.${norun}.dat
print			"TimeStep: ${dt}" append info.NVT.${norun}.dat
print			"TimeStep: ${dt}" append info.NVT.1.dat
TimeStep: 0.0005
print			"No. Atoms: ${N_atoms}" append info.${ensemble}.${norun}.dat
print			"No. Atoms: ${N_atoms}" append info.NVT.${norun}.dat
print			"No. Atoms: ${N_atoms}" append info.NVT.1.dat
No. Atoms: 20000
print			"Average Molar Mass: ${M_molar}" append info.${ensemble}.${norun}.dat
print			"Average Molar Mass: ${M_molar}" append info.NVT.${norun}.dat
print			"Average Molar Mass: ${M_molar}" append info.NVT.1.dat
Average Molar Mass: 142.2818

# ---------- Thermodynamics Output to Calculate Averages ----------
# -> output: thermo.dat
# Averaging Setup
variable		nfre equal 1000
fix				thermo_ave all ave/time 1 ${nfre} ${nfre} 					v_T v_p v_rho v_Etot v_Ekin v_Epot v_pyz v_eta 					file thermo.${ensemble}.${norun}.dat
fix				thermo_ave all ave/time 1 1000 ${nfre} 					v_T v_p v_rho v_Etot v_Ekin v_Epot v_pyz v_eta 					file thermo.${ensemble}.${norun}.dat
fix				thermo_ave all ave/time 1 1000 1000 					v_T v_p v_rho v_Etot v_Ekin v_Epot v_pyz v_eta 					file thermo.${ensemble}.${norun}.dat
fix				thermo_ave all ave/time 1 1000 1000 					v_T v_p v_rho v_Etot v_Ekin v_Epot v_pyz v_eta 					file thermo.NVT.${norun}.dat
fix				thermo_ave all ave/time 1 1000 1000 					v_T v_p v_rho v_Etot v_Ekin v_Epot v_pyz v_eta 					file thermo.NVT.1.dat

# ---------- Velocities along z axis ----------
# -> output: vy_profile.dat
variable        nbin equal 10
variable        dz equal 1/${nbin}
variable        dz equal 1/10
variable		neve_pro equal 1
variable		nrep_pro equal 1000
variable		nfre_pro equal 1000
compute         layers all chunk/atom bin/1d z center ${dz} units reduced
compute         layers all chunk/atom bin/1d z center 0.1 units reduced
fix		        profile all ave/chunk ${neve_pro} ${nrep_pro} ${nfre_pro} layers vy file vy_profile.dat
fix		        profile all ave/chunk 1 ${nrep_pro} ${nfre_pro} layers vy file vy_profile.dat
fix		        profile all ave/chunk 1 1000 ${nfre_pro} layers vy file vy_profile.dat
fix		        profile all ave/chunk 1 1000 1000 layers vy file vy_profile.dat

# ---------- Atoms Positions to Calculate Mean Square Displacement ----------
# -> output: atoms_position.dump
# variable    	ndump equal 1000
# dump			atomspos all custom ${ndump} atoms_position.${ensemble}.${norun}.dump id mol mass xu yu zu

run             ${n_run}
run             22000000
Per MPI rank memory allocation (min/avg/max) = 10.23 | 10.25 | 10.28 Mbytes
Step Atoms Volume Temp Press Density TotEng PotEng KinEng 
       0    20000    699690.43    373.89833    44.982015      0.67534    1037.5816    71.026834    966.55473 
    1000    20000    699690.43    367.80182    94.359298      0.67534    1035.0204    84.225651    950.79479 
    2000    20000    699690.43    375.79421    270.70874      0.67534    1044.8467    73.390971    971.45571 
    3000    20000    699690.43    371.10818    198.51584      0.67534    1044.0971    84.755145    959.34198 
    4000    20000    699690.43    367.54009    160.98737      0.67534    1021.8989    71.780681    950.11819 
    5000    20000    699690.43    375.02034    27.249227      0.67534    1063.3528    93.897558     969.4552 
    6000    20000    699690.43    376.07176    79.851723      0.67534    1063.2572    91.084051    972.17319 
    7000    20000    699690.43    375.90096    113.54539      0.67534    1060.6056    88.873938    971.73167 
    8000    20000    699690.43    375.14168   -52.291745      0.67534     1060.026    90.257086    969.76888 
    9000    20000    699690.43    370.03836    119.77031      0.67534    1043.0954     86.51898    956.57642 
   10000    20000    699690.43     372.1496    170.32315      0.67534    1048.5934    86.559285    962.03412 
   11000    20000    699690.43    380.45547    36.381687      0.67534    1082.4441    98.938697    983.50541 
   12000    20000    699690.43    371.83095     135.9055      0.67534    1046.4879    85.277508     961.2104 
   13000    20000    699690.43    377.05909    117.48916      0.67534    1079.3948    104.66926     974.7255 
   14000    20000    699690.43    373.52342    -205.2162      0.67534    1060.4795    94.893997    965.58553 
   15000    20000    699690.43    374.47293     233.4684      0.67534    1065.8095    97.769415     968.0401 
   16000    20000    699690.43    372.40358    101.56267      0.67534    1057.2427    94.551984    962.69067 
   17000    20000    699690.43    374.87892    132.89679      0.67534    1078.2172    109.12763     969.0896 
   18000    20000    699690.43    374.53202    181.01317      0.67534    1061.9919    93.799058    968.19285 
   19000    20000    699690.43    370.99558   -50.375227      0.67534    1050.6205    91.569647     959.0509 
   20000    20000    699690.43    373.92932    106.32054      0.67534    1072.0741     105.4393    966.63482 
   21000    20000    699690.43    373.26166   -45.008968      0.67534    1064.6851    99.776224    964.90888 
   22000    20000    699690.43    372.98044    4.8904719      0.67534    1061.2729    97.090991     964.1819 
   23000    20000    699690.43    370.10609   -27.620782      0.67534    1051.1962    94.444666     956.7515 
   24000    20000    699690.43    377.16406   -37.528938      0.67534    1077.3532     102.3563    974.99686 
   25000    20000    699690.43    373.53295    -95.41441      0.67534    1058.4175    92.807331    965.61019 
   26000    20000    699690.43    375.05951  -0.42876191      0.67534    1072.1354    102.57894    969.55646 
   27000    20000    699690.43    375.97739    328.15237      0.67534    1071.7844    99.855129    971.92924 
   28000    20000    699690.43    371.05456   -4.8735934      0.67534    1053.5127     94.30932    959.20335 
   29000    20000    699690.43    374.42587    191.58413      0.67534    1064.9487    97.030242    967.91845 
   30000    20000    699690.43    372.53947    46.749212      0.67534    1071.6782    108.63624    963.04198 
   31000    20000    699690.43    373.86091    168.86852      0.67534    1069.7534    103.29543    966.45799 
   32000    20000    699690.43    371.53191   -122.95406      0.67534    1061.8137     101.3764    960.43735 
   33000    20000    699690.43    376.14039    125.33248      0.67534    1075.2654     102.9148     972.3506 
   34000    20000    699690.43    375.74977    52.124684      0.67534    1076.0837    104.74286    971.34082 
   35000    20000    699690.43    373.34695   -34.684115      0.67534    1063.9552    98.825836    965.12937 
   36000    20000    699690.43    373.74502   -39.163862      0.67534    1059.5271    93.368735     966.1584 
   37000    20000    699690.43    369.65812    -189.5156      0.67534     1050.412    94.818547    955.59345 
   38000    20000    699690.43    371.46301    163.73809      0.67534    1052.9683     92.70906    960.25925 
   39000    20000    699690.43    373.80024    45.205868      0.67534    1055.4868    89.185684    966.30115 
   40000    20000    699690.43    370.69511    56.745427      0.67534    1060.9267    102.65256    958.27415 
   41000    20000    699690.43    373.56721    99.510257      0.67534     1070.914    105.21524    965.69875 
   42000    20000    699690.43    375.40501   -142.13755      0.67534    1076.4847    106.03511    970.44959 
   43000    20000    699690.43    374.24365    -26.76816      0.67534    1053.7744    86.326999     967.4474 
   44000    20000    699690.43    372.46943   -48.462512      0.67534    1060.3672    97.506345     962.8609 
   45000    20000    699690.43    373.77074   -3.9599346      0.67534    1069.1965    102.97157    966.22489 
   46000    20000    699690.43    377.27612   -46.582192      0.67534    1074.6922    99.405632    975.28655 
   47000    20000    699690.43    372.58946     -90.3665      0.67534    1057.3838    94.212609     963.1712 
   48000    20000    699690.43    370.21041    129.92709      0.67534    1059.4589    102.43769    957.02117 
   49000    20000    699690.43    368.84632   -35.536918      0.67534    1046.0271    92.532249    953.49489 
   50000    20000    699690.43    375.87736    209.20637      0.67534    1081.2295    109.55888    971.67066 
   51000    20000    699690.43    372.90202    83.259297      0.67534    1062.6012    98.622032    963.97919 
   52000    20000    699690.43    373.51852    263.79593      0.67534    1060.0457    94.472871    965.57288 
   53000    20000    699690.43     369.2037    79.135086      0.67534    1055.0328    100.61402    954.41875 
   54000    20000    699690.43    370.51712   -7.6479535      0.67534    1061.3206    103.50658    957.81404 
   55000    20000    699690.43     372.6673    8.1300162      0.67534     1071.715    108.34254    963.37241 
   56000    20000    699690.43    375.61027   -25.631087      0.67534    1060.6186    89.638404    970.98022 
   57000    20000    699690.43    373.92694   -4.3228558      0.67534    1062.6659    96.037251    966.62867 
   58000    20000    699690.43    368.55516     135.8144      0.67534    1060.3339    107.59165    952.74223 
   59000    20000    699690.43    372.94546   -35.058441      0.67534    1057.5043     93.41285    964.09147 
   60000    20000    699690.43    374.49608   -166.88439      0.67534    1065.2464    97.146427    968.09995 
   61000    20000    699690.43    371.42783    145.74753      0.67534    1065.4915     105.3232    960.16828 
   62000    20000    699690.43    372.31936   -9.6032074      0.67534    1065.4928    103.01985    962.47296 
   63000    20000    699690.43    375.88292    136.70031      0.67534    1074.5048    102.81978    971.68503 
   64000    20000    699690.43      375.338    21.255465      0.67534    1061.0484    90.772039    970.27636 
   65000    20000    699690.43    372.72672   -44.495127      0.67534    1065.1689     101.6429    963.52603 
   66000    20000    699690.43    373.04212    147.31316      0.67534    1056.7305    92.389194    964.34135 
   67000    20000    699690.43    368.55801    20.649658      0.67534    1056.6283    103.87874    952.74959 
   68000    20000    699690.43    371.91977   -4.1951163      0.67534    1055.3928    93.952771       961.44 
   69000    20000    699690.43    372.99931    51.696398      0.67534    1058.6254    94.394719    964.23068 
   70000    20000    699690.43    371.35267    3.7157411      0.67534    1067.8318    107.85781    959.97401 
   71000    20000    699690.43    372.78257   -6.9222027      0.67534    1060.9578    97.287372    963.67039 
   72000    20000    699690.43    372.03266     174.7312      0.67534    1056.0659    94.334125    961.73182 
   73000    20000    699690.43     372.4495   -78.569522      0.67534    1064.8411    102.03169    962.80938 
   74000    20000    699690.43    375.11235   -92.465824      0.67534    1067.2639      97.5709    969.69304 
   75000    20000    699690.43    374.70941    44.094829      0.67534    1069.5595    100.90805    968.65143 
   76000    20000    699690.43    376.21491     126.0972      0.67534    1061.7565    89.213231    972.54324 
   77000    20000    699690.43     376.4511   -157.67404      0.67534    1069.3066    96.152742    973.15382 
   78000    20000    699690.43    372.05503    51.817578      0.67534    1065.9961    104.20643    961.78964 
   79000    20000    699690.43    373.46143   -9.7386979      0.67534    1059.1328    93.707541     965.4253 
   80000    20000    699690.43    370.91535    97.657071      0.67534    1064.0743    105.23082    958.84349 
   81000    20000    699690.43    372.44443   -102.95924      0.67534    1058.9677    96.171456    962.79628 
   82000    20000    699690.43    374.84263     110.0571      0.67534    1068.3103    99.314549    968.99579 
   83000    20000    699690.43     373.9083    118.88897      0.67534    1054.7174    88.136942    966.58048 
   84000    20000    699690.43    376.95189    102.46194      0.67534     1068.721    94.272603     974.4484 
   85000    20000    699690.43    375.11952   -83.170967      0.67534    1069.1609    99.449316    969.71159 
   86000    20000    699690.43     373.1181   -167.07883      0.67534    1062.9867    98.448949    964.53778 
   87000    20000    699690.43    372.09282    31.806447      0.67534    1065.7564     103.8691    961.88733 
   88000    20000    699690.43    373.72495   -224.43395      0.67534    1066.9364     100.8299    966.10653 
   89000    20000    699690.43    374.78788    232.44941      0.67534    1067.1871    98.332799    968.85428 
   90000    20000    699690.43    378.13371    128.86962      0.67534    1073.6344     96.13095    977.50348 
   91000    20000    699690.43    373.56041   -57.893398      0.67534    1061.5422    95.860987    965.68118 
   92000    20000    699690.43    370.00558    81.477331      0.67534    1054.3546    97.862899    956.49168 
   93000    20000    699690.43    377.61986    25.934671      0.67534    1078.3433    102.16816    976.17513 
   94000    20000    699690.43    374.12159   -51.805686      0.67534     1054.099    86.967102    967.13185 
   95000    20000    699690.43    372.99969    92.572232      0.67534    1062.5871    98.355413    964.23167 
   96000    20000    699690.43    375.89278   -43.667076      0.67534    1079.9069     108.1964    971.71051 
   97000    20000    699690.43    372.20727    424.43015      0.67534     1064.627    102.44377     962.1832 
   98000    20000    699690.43    374.26207    -139.9693      0.67534    1071.2774    103.78233    967.49502 
   99000    20000    699690.43    372.19557    103.07698      0.67534    1066.2125    104.05951    962.15295 
  100000    20000    699690.43    374.14597    240.43468      0.67534    1070.3083    103.11339    967.19488 
  101000    20000    699690.43    373.86808   -62.021307      0.67534    1065.6919    99.215396    966.47651 
  102000    20000    699690.43    376.05803   -16.849121      0.67534    1075.3191    103.18145    972.13769 
  103000    20000    699690.43    369.51622   -84.959911      0.67534    1053.8145    98.587893    955.22663 
  104000    20000    699690.43    371.95246     89.67674      0.67534    1053.5394    92.014849     961.5245 
  105000    20000    699690.43    375.72157   -11.020921      0.67534    1074.8373    103.56935    971.26793 
  106000    20000    699690.43    378.60902    34.951215      0.67534    1076.2005    97.468259     978.7322 
  107000    20000    699690.43    371.97271     -3.92192      0.67534    1061.5234    99.946571    961.57686 
  108000    20000    699690.43    376.36727    8.5002021      0.67534    1065.2924    92.355296    972.93712 
  109000    20000    699690.43    374.39508   -230.99631      0.67534    1069.0886    101.24972    967.83885 
  110000    20000    699690.43    374.24845    14.725315      0.67534    1056.9055     89.44565    967.45981 
  111000    20000    699690.43    375.87675    26.411235      0.67534     1068.009    96.339958    971.66909 
  112000    20000    699690.43    375.93727    58.663975      0.67534    1061.9084    90.082849    971.82552 
  113000    20000    699690.43    374.29968    72.905238      0.67534    1068.0379    100.44566    967.59224 
  114000    20000    699690.43    370.87671    87.952101      0.67534    1059.0067    100.26314     958.7436 
  115000    20000    699690.43    372.35377   -119.06324      0.67534     1067.199    104.63711    962.56191 
  116000    20000    699690.43    380.09093   -30.009008      0.67534    1075.2957    92.732692    982.56304 
  117000    20000    699690.43    372.97057   -158.99207      0.67534    1060.2054    96.049021    964.15639 
  118000    20000    699690.43    372.40665    36.519315      0.67534    1061.3715    98.672922     962.6986 
  119000    20000    699690.43    372.85712    11.000229      0.67534    1069.0672    105.20411    963.86311 
  120000    20000    699690.43     374.3367    22.810654      0.67534    1060.7388     93.05086    967.68793 
  121000    20000    699690.43    374.61354    -134.9162      0.67534    1056.8322    88.428645    968.40359 
  122000    20000    699690.43    369.22931   -39.931632      0.67534    1063.1448     108.6598    954.48496 
  123000    20000    699690.43     371.0803    1.2461036      0.67534    1048.0642    88.794275     959.2699 
  124000    20000    699690.43    372.58509   -156.42755      0.67534    1061.4945    98.334571     963.1599 
  125000    20000    699690.43    373.74282   -103.23846      0.67534    1060.0819    93.929206     966.1527 
  126000    20000    699690.43    372.97993   -86.325434      0.67534    1058.0265    93.845879    964.18058 
  127000    20000    699690.43    373.18822   -128.59934      0.67534    1057.1963    92.477252    964.71903 
  128000    20000    699690.43    373.02579    154.66252      0.67534    1063.9744     99.67523    964.29915 
  129000    20000    699690.43    372.81179   -20.432603      0.67534    1054.5541    90.808171    963.74592 
  130000    20000    699690.43    371.60591   -75.668025      0.67534    1055.8977    95.269081    960.62863 
  131000    20000    699690.43    377.28309   -13.806688      0.67534    1079.6582    104.35368    975.30457 
  132000    20000    699690.43    373.76104   -46.011738      0.67534    1067.6564    101.45657     966.1998 
  133000    20000    699690.43    370.26813   -118.36957      0.67534    1054.7394    97.569035    957.17039 
  134000    20000    699690.43    370.55756   -146.61529      0.67534    1063.8825     105.9639    957.91859 
  135000    20000    699690.43    378.75013    59.472473      0.67534    1084.1721    105.07511    979.09698 
  136000    20000    699690.43    373.73367   -163.89122      0.67534    1070.6089    104.47987    966.12907 
  137000    20000    699690.43    373.70504   -73.354532      0.67534    1069.6589    103.60383    966.05505 
  138000    20000    699690.43    374.25007   -96.389493      0.67534    1057.7102    90.246197      967.464 
  139000    20000    699690.43    374.24814    44.294356      0.67534    1072.1965    104.73752    967.45901 
  140000    20000    699690.43    367.51688   -123.99921      0.67534    1052.8209     102.7627    950.05821 
  141000    20000    699690.43    372.53479    -29.18415      0.67534    1060.0405    97.010665    963.02986 
  142000    20000    699690.43    374.96721   -1.8146678      0.67534    1073.1969     103.8791    969.31785 
  143000    20000    699690.43    374.62372   -37.503461      0.67534    1072.2009    103.77097    968.42991 
  144000    20000    699690.43    371.02554    108.91507      0.67534    1054.7356    95.607262    959.12833 
  145000    20000    699690.43    374.18087    49.951573      0.67534     1067.187    99.901845    967.28511 
  146000    20000    699690.43    372.07053   -16.579103      0.67534    1056.5078    94.678122    961.82972 
  147000    20000    699690.43    375.66001   -59.517303      0.67534    1070.9512    99.842395    971.10879 
  148000    20000    699690.43    373.51123    41.279646      0.67534    1067.1927     101.6387    965.55405 
  149000    20000    699690.43    374.27501    -41.93152      0.67534    1074.2268    106.69836    967.52847 
  150000    20000    699690.43     378.2162     154.4086      0.67534    1084.3199     106.6032    977.71673 
  151000    20000    699690.43    374.95426    192.56637      0.67534    1061.7898    92.505405    969.28437 
  152000    20000    699690.43    372.08442   -70.520914      0.67534    1065.3821    103.51646    961.86562 
  153000    20000    699690.43    369.96835    23.084426      0.67534    1062.6158    106.22041    956.39543 
  154000    20000    699690.43    373.28031   -123.91287      0.67534    1063.0069    98.049825    964.95708 
  155000    20000    699690.43    375.98991    193.94467      0.67534    1070.9591    98.997507     971.9616 
  156000    20000    699690.43    373.67785    -5.707257      0.67534    1061.1607    95.175892    965.98476 
  157000    20000    699690.43    375.88863   -220.09957      0.67534    1071.2134    99.513627    971.69979 
  158000    20000    699690.43    371.64197    140.37781      0.67534    1059.1097    98.387864    960.72187 
  159000    20000    699690.43    371.22677    68.594551      0.67534    1054.3953    94.746765    959.64854 
  160000    20000    699690.43    373.92851    64.220198      0.67534     1076.824    110.19123    966.63274 
  161000    20000    699690.43    368.03974   -229.18546      0.67534    1052.0545    100.64467    951.40982 
  162000    20000    699690.43    374.62377    156.27508      0.67534     1075.722    107.29196    968.43004 
  163000    20000    699690.43    376.39137    39.841129      0.67534    1073.0878    100.08841    972.99941 
  164000    20000    699690.43    372.92372   -14.115192      0.67534    1061.3283    97.293014    964.03527 
  165000    20000    699690.43    376.68606    36.136114      0.67534    1073.8779    100.11669    973.76122 
  166000    20000    699690.43    371.36739    59.954453      0.67534    1066.3599    106.34779    960.01206 
  167000    20000    699690.43     371.2254    203.17084      0.67534    1057.6354    97.990357      959.645 
  168000    20000    699690.43    375.17637    -189.8165      0.67534    1080.4517    110.59314    969.85854 
  169000    20000    699690.43    368.22812   -59.875963      0.67534    1045.0999    93.203154     951.8968 
  170000    20000    699690.43    374.03447   -9.3437755      0.67534    1065.0531    98.146402    966.90665 
  171000    20000    699690.43    370.82962    175.07747      0.67534    1066.8877    108.26578    958.62188 
  172000    20000    699690.43    378.77519   -87.528588      0.67534    1071.8154    92.653592    979.16176 
  173000    20000    699690.43    371.82703    100.85478      0.67534    1056.7899    95.589591    961.20027 
  174000    20000    699690.43    371.18349    22.477763      0.67534    1060.6947    101.15801    959.53667 
  175000    20000    699690.43    376.14601     60.87516      0.67534    1071.6336     99.26841    972.36514 
  176000    20000    699690.43    372.11517    198.88765      0.67534     1063.583    101.63791     961.9451 
  177000    20000    699690.43    370.56978   -94.347363      0.67534    1054.1708     96.22062    957.95016 
  178000    20000    699690.43    375.13732   -18.703118      0.67534    1074.1915    104.43386     969.7576 
  179000    20000    699690.43    376.20266    -13.10857      0.67534     1075.121    102.60943    972.51158 
  180000    20000    699690.43      373.337   -107.96215      0.67534    1064.4861    99.382488    965.10363 
  181000    20000    699690.43    370.39593   -40.740298      0.67534    1065.2823     107.7816    957.50075 
  182000    20000    699690.43    375.32007    119.27808      0.67534    1081.2065     110.9765    970.23003 
  183000    20000    699690.43      374.187   -23.383409      0.67534    1078.3675    111.06657    967.30094 
  184000    20000    699690.43    373.42417    237.79207      0.67534    1058.4621     93.13312    965.32898 
  185000    20000    699690.43    372.11394    90.126922      0.67534    1069.0466    107.10464    961.94195 
  186000    20000    699690.43    372.11185   -171.46121      0.67534    1072.3864    110.44989    961.93654 
  187000    20000    699690.43    373.03896   -299.49061      0.67534    1063.6942    99.361021    964.33317 
  188000    20000    699690.43    375.58533    3.8634406      0.67534    1075.3523    104.43656    970.91573 
  189000    20000    699690.43    371.42849   -278.66966      0.67534    1067.6019    107.43194       960.17 
  190000    20000    699690.43    377.65044    13.112339      0.67534    1076.2126    99.958372     976.2542 
  191000    20000    699690.43    375.76107    51.921551      0.67534    1073.5313    102.16128    971.37002 
  192000    20000    699690.43    371.95755    26.924406      0.67534    1065.6503    104.11261    961.53765 
  193000    20000    699690.43    375.70696    100.28489      0.67534    1074.3031    103.07296    971.23017 
  194000    20000    699690.43    377.46469    143.72494      0.67534     1078.771    102.99697    975.77402 
  195000    20000    699690.43    369.91066   -74.231628      0.67534    1047.9714    91.725092    956.24631 
  196000    20000    699690.43    371.44707   -58.962273      0.67534    1068.8525     108.6345    960.21804 
  197000    20000    699690.43    373.78134    271.72762      0.67534    1070.2391     103.9868    966.25228 
  198000    20000    699690.43    372.98838    138.70529      0.67534    1063.9519    99.749439    964.20243 
  199000    20000    699690.43    376.45403   -82.204852      0.67534    1072.4136    99.252164    973.16139 
  200000    20000    699690.43    372.91517    119.18351      0.67534    1058.8831    94.869931    964.01318 
  201000    20000    699690.43    372.98427    11.200543      0.67534    1058.2338     94.04201    964.19181 
  202000    20000    699690.43    372.75384   -130.04151      0.67534    1072.9116    109.31542    963.59614 
  203000    20000    699690.43    371.23114   -120.96398      0.67534    1055.0231     95.36329    959.65983 
  204000    20000    699690.43    370.78097    39.678737      0.67534    1057.5303    99.034249     958.4961 
  205000    20000    699690.43    370.91601    79.039882      0.67534     1056.196    97.350858    958.84519 
  206000    20000    699690.43    374.33937    85.383448      0.67534    1073.4106    105.71578    967.69483 
  207000    20000    699690.43    373.89537   -26.207466      0.67534     1065.109    98.561962    966.54706 
  208000    20000    699690.43    371.28638    103.82027      0.67534    1061.7064    101.90377    959.80263 
  209000    20000    699690.43    375.20464   -68.189371      0.67534    1070.2485    100.31691    969.93162 
  210000    20000    699690.43    374.14338   -78.076948      0.67534      1072.59    105.40182    967.18819 
  211000    20000    699690.43    371.94082   -90.978516      0.67534    1056.2939    94.799503     961.4944 
  212000    20000    699690.43    370.89015   -219.85416      0.67534    1050.7767    91.998343    958.77836 
  213000    20000    699690.43    369.93683    40.412353      0.67534    1061.0677    104.75377    956.31395 
  214000    20000    699690.43    376.46315    71.777848      0.67534    1065.6148    92.429839    973.18496 
  215000    20000    699690.43     373.2737    166.47809      0.67534    1060.0585    95.118541    964.93999 
  216000    20000    699690.43    372.09569    12.921417      0.67534    1062.0167    100.12199    961.89476 
  217000    20000    699690.43    372.55953    114.98058      0.67534    1058.8985    95.804651    963.09381 
  218000    20000    699690.43    372.60918   -188.53532      0.67534    1061.6799    98.457705    963.22217 
  219000    20000    699690.43    369.04319   -92.594314      0.67534    1052.8436    98.839822    954.00382 
  220000    20000    699690.43    373.03559   -77.729978      0.67534    1060.9618    96.637328    964.32446 
  221000    20000    699690.43     371.0748   -135.85942      0.67534    1056.9149    97.659227    959.25568 
  222000    20000    699690.43    370.69624    183.82202      0.67534    1053.8063    95.529215    958.27708 
  223000    20000    699690.43    370.64697   -143.46517      0.67534    1060.5031    102.35338     958.1497 
  224000    20000    699690.43    369.96046   -65.396806      0.67534    1063.8286    107.45353    956.37502 
  225000    20000    699690.43    376.59488   -51.530346      0.67534    1064.3936    90.868137     973.5255 
  226000    20000    699690.43    372.65546   -75.799764      0.67534    1052.0251    88.683272    963.34181 
  227000    20000    699690.43      372.283   -5.8604918      0.67534    1069.6759    107.29691    962.37896 
  228000    20000    699690.43    373.91432    212.95638      0.67534    1064.5381    97.942031    966.59606 
  229000    20000    699690.43    372.33562    140.58746      0.67534    1058.3445    95.829457      962.515 
  230000    20000    699690.43    375.11378    -52.67422      0.67534    1068.0284    98.331655    969.69674 
  231000    20000    699690.43    370.23855   -24.938595      0.67534    1061.6583    104.56439    957.09392 
  232000    20000    699690.43    370.64857    176.09325      0.67534    1068.2146    110.06073    958.15384 
  233000    20000    699690.43    371.90121    114.28133      0.67534    1056.4873    95.095254    961.39202 
  234000    20000    699690.43    374.44937  -0.96546916      0.67534    1067.1474    99.168173    967.97919 
  235000    20000    699690.43    372.96955    174.59367      0.67534    1059.0786    94.924877    964.15376 
  236000    20000    699690.43     373.5361   -71.602903      0.67534    1064.3683    98.750018    965.61832 
  237000    20000    699690.43    372.81622    115.86057      0.67534    1052.3125     88.55515    963.75738 
  238000    20000    699690.43    375.42503    89.245273      0.67534    1075.2955    104.79418    970.50135 
  239000    20000    699690.43     376.5385     121.1278      0.67534    1079.4766    106.09682    973.37975 
  240000    20000    699690.43    372.07339   -46.540135      0.67534    1066.3505     104.5134    961.83712 
  241000    20000    699690.43    368.34794    30.462229      0.67534    1054.0842    101.87769    952.20654 
  242000    20000    699690.43    369.84049     156.4429      0.67534    1059.5416    103.47674    956.06489 
  243000    20000    699690.43     372.5064   -42.830144      0.67534    1059.3796    96.423137    962.95647 
  244000    20000    699690.43    369.02821   -150.86231      0.67534    1046.6788      92.7137    953.96511 
  245000    20000    699690.43    373.76291   -62.148588      0.67534    1070.3331    104.12851    966.20464 
  246000    20000    699690.43     374.9516   -56.923341      0.67534    1076.2083    106.93082     969.2775 
  247000    20000    699690.43    373.85054   -426.54787      0.67534    1062.3807    95.949519    966.43118 
  248000    20000    699690.43    374.24202   -25.663609      0.67534    1069.2542      101.811    967.44319 
  249000    20000    699690.43    373.26538    -83.91927      0.67534    1064.6591    99.740605    964.91849 
  250000    20000    699690.43    370.31076    113.29659      0.67534    1059.3317    102.05107    957.28059 
  251000    20000    699690.43    366.86545    7.7862654      0.67534    1043.5254    95.151233    948.37422 
  252000    20000    699690.43    372.87849   -129.47219      0.67534    1076.8578    112.93948    963.91835 
  253000    20000    699690.43    371.17931    115.60645      0.67534    1053.2265    93.700689    959.52584 
  254000    20000    699690.43    377.27269    9.4282913      0.67534    1069.4501    94.172394    975.27768 
  255000    20000    699690.43    373.37233   -45.450223      0.67534    1075.5238     110.3288    965.19497 
  256000    20000    699690.43    374.95677   -40.738305      0.67534    1074.6731    105.38221    969.29087 
  257000    20000    699690.43    372.07941    44.095523      0.67534    1065.1136    103.26098    961.85267 
  258000    20000    699690.43    374.03407   -68.446363      0.67534    1062.2635    95.357865    966.90562 
  259000    20000    699690.43    371.25466    72.886409      0.67534    1062.4334    102.71282    959.72063 
  260000    20000    699690.43    374.53525    110.90895      0.67534    1067.6018    99.400627     968.2012 
  261000    20000    699690.43    371.44414   -48.773213      0.67534    1060.8207    100.61028    960.21046 
  262000    20000    699690.43     375.5846   -62.625819      0.67534    1074.4188    103.50501    970.91384 
  263000    20000    699690.43    370.77482   -253.61864      0.67534    1054.5166    96.036379    958.48022 
  264000    20000    699690.43    377.21562   -236.65778      0.67534    1072.3949    97.264705    975.13016 
  265000    20000    699690.43    373.80736   -106.40173      0.67534    1060.5719    94.252373    966.31955 
  266000    20000    699690.43    373.37287    97.728496      0.67534    1070.7556    105.55923    965.19637 
  267000    20000    699690.43    370.73852   -36.977216      0.67534    1062.8254    104.43898    958.38638 
  268000    20000    699690.43    373.48454    199.35082      0.67534    1066.7738    101.28875    965.48503 
  269000    20000    699690.43    376.04321   -5.0518573      0.67534    1078.1027    106.00329    972.09938 
  270000    20000    699690.43    373.39204   -58.526281      0.67534     1060.343    95.097101    965.24591 
  271000    20000    699690.43    375.00852   -12.174572      0.67534     1073.954    104.52939    969.42465 
  272000    20000    699690.43    372.14633   -165.60933      0.67534     1078.261    116.23528    962.02568 
  273000    20000    699690.43    369.19613    9.8674681      0.67534     1055.526    101.12677    954.39919 
  274000    20000    699690.43    373.86725    88.911702      0.67534    1072.2432     105.7688    966.47436 
  275000    20000    699690.43    375.40652    18.960967      0.67534    1063.8129    93.359409    970.45349 
  276000    20000    699690.43    374.42165   -49.720928      0.67534    1078.7249    110.81737    967.90753 
  277000    20000    699690.43     376.2356   -126.31744      0.67534    1070.8731    98.276406    972.59673 
  278000    20000    699690.43    372.12537    61.713523      0.67534    1062.6591    100.68765    961.97149 
  279000    20000    699690.43    375.93095     4.127318      0.67534    1075.6741     103.8649     971.8092 
  280000    20000    699690.43    374.42964   -6.5460155      0.67534    1065.9778    98.049649    967.92819 
  281000    20000    699690.43    374.21794   -75.559473      0.67534    1062.9612    95.580306    967.38093 
  282000    20000    699690.43    375.36805   -183.56074      0.67534    1077.8257    107.47163    970.35405 
  283000    20000    699690.43    373.31346   -90.065819      0.67534    1070.6492    105.60644    965.04279 
  284000    20000    699690.43    371.64458   -46.170124      0.67534    1063.3898    102.66118     960.7286 
  285000    20000    699690.43    375.61967    -53.10843      0.67534    1066.3486    95.344107     971.0045 
  286000    20000    699690.43     371.6228   -221.38572      0.67534    1059.2489    98.576581    960.67231 
  287000    20000    699690.43    376.79838   -111.46905      0.67534    1083.4984    109.44683    974.05155 
  288000    20000    699690.43    374.48756     -141.139      0.67534    1074.8033    106.72543    968.07792 
  289000    20000    699690.43    375.08609      -28.055      0.67534    1075.9489    106.32377    969.62517 
  290000    20000    699690.43     374.3218      22.7988      0.67534    1069.9607    102.31126    967.64943 
  291000    20000    699690.43    370.55756    64.011526      0.67534    1056.0095    98.090884    957.91859 
  292000    20000    699690.43     376.2251   -20.779382      0.67534    1082.6061    110.03653    972.56959 
  293000    20000    699690.43    368.15761    85.100969      0.67534    1046.1629    94.448331    951.71453 
  294000    20000    699690.43    372.81229    74.829652      0.67534    1075.4516    111.70434    963.74722 
  295000    20000    699690.43     371.3808    178.62212      0.67534    1056.1176    96.070891    960.04673 
  296000    20000    699690.43    375.97233   -116.14949      0.67534    1078.9042    106.98805    971.91616 
  297000    20000    699690.43    371.99927   -44.113903      0.67534     1065.142    103.49651     961.6455 
  298000    20000    699690.43    371.71387    141.51745      0.67534     1069.533    108.62529    960.90774 
  299000    20000    699690.43     371.1691    214.40785      0.67534    1066.3809    106.88143    959.49946 
  300000    20000    699690.43    369.42166    110.36021      0.67534    1053.4602    98.478018    954.98219 
  301000    20000    699690.43    372.25263   -174.82425      0.67534    1069.9438    107.64337    962.30045 
  302000    20000    699690.43    372.23607    85.445336      0.67534    1064.8131    102.55548    962.25765 
  303000    20000    699690.43    375.97236    68.046316      0.67534    1074.1682    102.25198    971.91623 
  304000    20000    699690.43    372.98845   -247.07093      0.67534    1057.2338    93.031148    964.20261 
  305000    20000    699690.43    370.99603   -22.383271      0.67534    1062.0912    103.03912    959.05205 
  306000    20000    699690.43     372.2473   -63.398923      0.67534     1061.445    99.158339    962.28669 
  307000    20000    699690.43    373.08843   -79.267795      0.67534    1070.5149    106.05385    964.46108 
  308000    20000    699690.43    371.44247   -153.50209      0.67534    1051.6784    91.472222    960.20614 
  309000    20000    699690.43    373.56419   -50.166608      0.67534    1064.9961    99.305154    965.69093 
  310000    20000    699690.43    374.39273    75.449584      0.67534    1068.5413    100.70855    967.83278 
  311000    20000    699690.43    371.02144   -36.383392      0.67534    1053.7489    94.631143    959.11775 
  312000    20000    699690.43     370.5442    37.545004      0.67534    1070.7067    112.82267    957.88404 
  313000    20000    699690.43    375.45203   -56.061546      0.67534    1091.6218    121.05067    970.57115 
  314000    20000    699690.43    372.65536   -245.04575      0.67534    1065.3067    101.96518    963.34154 
  315000    20000    699690.43    371.56063   -218.28023      0.67534    1059.5324    99.020797     960.5116 
  316000    20000    699690.43    376.02138    111.37111      0.67534    1071.5318    99.488786    972.04296 
  317000    20000    699690.43    374.11219   -258.58902      0.67534    1071.4602    104.35266    967.10756 
  318000    20000    699690.43    373.55783    135.60499      0.67534    1077.5973    111.92277     965.6745 
  319000    20000    699690.43    374.23828   -106.36337      0.67534    1064.6945    97.260938    967.43352 
  320000    20000    699690.43    369.32989    -67.33899      0.67534    1060.9383    106.19334    954.74496 
  321000    20000    699690.43    369.49385   -104.97216      0.67534    1060.3263    105.15754    955.16881 
  322000    20000    699690.43    371.49827   -155.95702      0.67534    1063.8088    103.45841    960.35038 
  323000    20000    699690.43    376.63856   -28.297065      0.67534    1088.9112    115.27276    973.63842 
  324000    20000    699690.43    373.55478   -193.69086      0.67534    1063.5573    97.890725    965.66661 
  325000    20000    699690.43    376.47991   -16.103261      0.67534    1072.4137    99.185363     973.2283 
  326000    20000    699690.43    374.14781   -38.155154      0.67534    1060.6257     93.42605    967.19964 
  327000    20000    699690.43    373.16215    47.677609      0.67534    1066.8747    102.22302    964.65165 
  328000    20000    699690.43    373.32533   -11.665794      0.67534    1067.3569    102.28344    965.07347 
  329000    20000    699690.43    374.75599   -47.657908      0.67534    1071.1176    102.34572    968.77184 
  330000    20000    699690.43     375.5681     78.08156      0.67534    1072.7391    101.86786    970.87121 
  331000    20000    699690.43    374.41079    322.33539      0.67534    1070.9641    103.08465    967.87947 
  332000    20000    699690.43    372.71547    177.75041      0.67534    1062.3875    98.890573    963.49693 
  333000    20000    699690.43    380.72065    2.3614775      0.67534    1087.1198    102.92887    984.19092 
  334000    20000    699690.43    375.39043   -124.29509      0.67534    1062.4527    92.040742    970.41191 
  335000    20000    699690.43    375.37688   -22.333615      0.67534    1069.9247    99.547834    970.37688 
  336000    20000    699690.43    377.71128   -102.89626      0.67534    1074.2444    97.832892    976.41146 
  337000    20000    699690.43    372.96361     201.3852      0.67534    1074.7524    110.61401    964.13839 
  338000    20000    699690.43    374.66715    -27.10859      0.67534    1060.1522    91.610026    968.54218 
  339000    20000    699690.43    375.09799    37.625332      0.67534    1075.6265    105.97063    969.65592 
  340000    20000    699690.43    372.38756   -24.320038      0.67534    1056.5506    93.901337    962.64927 
  341000    20000    699690.43    370.35818   -136.05473      0.67534    1055.7972    98.394007    957.40318 
  342000    20000    699690.43     370.9684   -396.15473      0.67534    1054.0229    95.042266    958.98063 
  343000    20000    699690.43    376.59374   -45.105897      0.67534    1068.4844    94.961875    973.52255 
  344000    20000    699690.43    374.61871    -228.8535      0.67534    1072.2116    103.79465    968.41695 
  345000    20000    699690.43    373.90829   -319.26512      0.67534    1062.2272    95.646765    966.58046 
  346000    20000    699690.43    376.19001    198.44958      0.67534    1073.9423    101.46341    972.47889 
  347000    20000    699690.43    377.62681    64.271051      0.67534    1074.2567     98.06354    976.19312 
  348000    20000    699690.43    369.82971   -108.19287      0.67534    1060.0497    104.01269    956.03703 
  349000    20000    699690.43    372.27077   -200.67489      0.67534    1056.6773    94.329907    962.34736 
  350000    20000    699690.43    372.29494    168.76613      0.67534    1071.6508    109.24096    962.40985 
  351000    20000    699690.43    374.22666    228.01444      0.67534    1066.9022     99.49875    967.40348 
  352000    20000    699690.43    370.36575    133.60693      0.67534    1045.8088     88.38609    957.42275 
  353000    20000    699690.43    371.70483   -211.89195      0.67534    1068.7619     107.8775    960.88436 
  354000    20000    699690.43    372.55611    107.98338      0.67534    1063.7243    100.63931    963.08497 
  355000    20000    699690.43    372.66757   -294.28684      0.67534    1056.5693    93.196215    963.37311 
  356000    20000    699690.43    373.06399    191.78959      0.67534    1051.2567    86.858845    964.39789 
  357000    20000    699690.43    373.70235   -6.5465132      0.67534     1060.124    94.075883     966.0481 
  358000    20000    699690.43    374.45963   -30.155438      0.67534    1059.4645    91.458775    968.00571 
  359000    20000    699690.43    377.94299   -325.42535      0.67534    1071.8875     94.87702    977.01047 
  360000    20000    699690.43    375.43545   -76.085387      0.67534    1071.9505    101.42218    970.52828 
  361000    20000    699690.43    370.91081   -80.373049      0.67534     1060.088    101.25621    958.83175 
  362000    20000    699690.43    372.91963   -61.103078      0.67534    1052.9471    88.922381    964.02471 
  363000    20000    699690.43    376.40791    235.61988      0.67534    1069.4419    96.399767    973.04218 
  364000    20000    699690.43    377.21402   -32.002337      0.67534    1078.2679    103.14187    975.12602 
  365000    20000    699690.43    373.80101    75.166025      0.67534    1062.9205    96.617339    966.30313 
  366000    20000    699690.43    371.70784    4.7256369      0.67534    1061.4082    100.51607    960.89215 
  367000    20000    699690.43    373.93979    202.42866      0.67534    1059.6365    92.974604    966.66191 
  368000    20000    699690.43    373.59838    10.365395      0.67534    1065.3347     99.55538    965.77932 
  369000    20000    699690.43    370.68462    115.17323      0.67534    1060.9092    102.66212    958.24704 
  370000    20000    699690.43     373.1448   -37.669008      0.67534    1066.3722    101.76539    964.60679 
  371000    20000    699690.43    374.42475    5.2490623      0.67534    1068.7756    100.86007    967.91556 
  372000    20000    699690.43    369.83492   -77.453512      0.67534     1062.715    106.66452    956.05052 
  373000    20000    699690.43    373.09783   -139.52223      0.67534    1069.0762    104.59085    964.48536 
  374000    20000    699690.43    374.39351   -82.671636      0.67534    1065.2854    97.450598    967.83479 
  375000    20000    699690.43    370.25282   -168.84242      0.67534     1054.682    97.551164    957.13081 
  376000    20000    699690.43    373.06451   -31.547624      0.67534    1068.0158     103.6166    964.39923 
  377000    20000    699690.43    374.11648    49.902378      0.67534    1060.2882    93.169564    967.11865 
  378000    20000    699690.43    372.42184    111.71215      0.67534    1046.8392    84.101332    962.73788 
  379000    20000    699690.43    372.46316   -31.481793      0.67534    1054.2812    91.436546     962.8447 
  380000    20000    699690.43    373.55617   -29.117418      0.67534     1079.237    113.56682    965.67022 
  381000    20000    699690.43    374.13335    74.391502      0.67534      1051.73     84.56772    967.16226 
  382000    20000    699690.43    376.66105   -102.15269      0.67534    1068.3632    94.666659    973.69655 
  383000    20000    699690.43    373.62293   -35.705791      0.67534    1062.8378    96.995039    965.84279 
  384000    20000    699690.43    374.30388    92.930091      0.67534    1075.2772     107.6741    967.60311 
  385000    20000    699690.43    376.98149   -125.79014      0.67534    1066.7769    92.251949    974.52492 
  386000    20000    699690.43    370.81016   -183.08707      0.67534    1049.0055    90.433897    958.57156 
  387000    20000    699690.43    372.58785    94.453018      0.67534    1063.1778    100.01081    963.16704 
  388000    20000    699690.43    375.49279   -150.74671      0.67534     1072.963     102.2865    970.67652 
  389000    20000    699690.43    372.43593    124.02622      0.67534    1058.2243    95.449959    962.77431 
  390000    20000    699690.43    373.95178    -49.40856      0.67534     1061.521    94.828133     966.6929 
  391000    20000    699690.43    373.01778    202.73467      0.67534    1066.3413    102.06287    964.27844 
  392000    20000    699690.43    373.56216    85.709158      0.67534    1067.4796     101.7939     965.6857 
  393000    20000    699690.43    375.21252    37.994095      0.67534    1061.3333     91.38131    969.95199 
  394000    20000    699690.43    377.02084   -102.21675      0.67534    1073.1466    98.519916    974.62664 
  395000    20000    699690.43     373.5794   -205.95496      0.67534    1065.2593    99.529063    965.73026 
  396000    20000    699690.43    372.81778    171.96267      0.67534    1062.9577    99.196264    963.76142 
  397000    20000    699690.43    376.82911   -91.257943      0.67534    1070.0503    95.919328    974.13101 
  398000    20000    699690.43    371.71878   -83.509871      0.67534    1053.9018    92.981422    960.92042 
  399000    20000    699690.43    373.05998   -266.38607      0.67534    1061.3565       96.969    964.38752 
  400000    20000    699690.43     370.6089     29.25087      0.67534    1059.4008    101.34949     958.0513 
  401000    20000    699690.43    373.19694    80.327694      0.67534    1065.8804    101.13881    964.74158 
  402000    20000    699690.43    376.02614    170.87082      0.67534    1062.4582    90.402958    972.05526 
  403000    20000    699690.43    373.23842    23.054724      0.67534     1053.121    88.272199    964.84879 
  404000    20000    699690.43    376.07085   -66.103106      0.67534    1065.7798    93.608951    972.17084 
  405000    20000    699690.43    374.00534    83.861625      0.67534    1065.8483    99.016977    966.83135 
  406000    20000    699690.43    375.27206    11.149357      0.67534    1067.6732     97.56727    970.10592 
  407000    20000    699690.43    370.30805    123.00079      0.67534    1055.5421    98.268478    957.27359 
  408000    20000    699690.43    370.49568   -51.921579      0.67534    1059.6193    101.86073    957.75861 
  409000    20000    699690.43    373.04029   -78.468619      0.67534    1065.3572    101.02057    964.33662 
  410000    20000    699690.43    371.53089   -49.631509      0.67534     1057.909    97.474255    960.43471 
  411000    20000    699690.43    374.81025    -109.7659      0.67534    1071.1749    102.26283    968.91211 
  412000    20000    699690.43    376.19933    40.507392      0.67534    1071.3993    98.896359    972.50298 
  413000    20000    699690.43    369.93271     67.52914      0.67534     1057.527    101.22375    956.30329 
  414000    20000    699690.43    372.20904   -78.507598      0.67534    1071.9404    109.75267    962.18777 
  415000    20000    699690.43    373.62011   -136.98438      0.67534    1062.9543    97.118819    965.83549 
  416000    20000    699690.43    374.14502    128.40509      0.67534    1069.7983    102.60591    967.19242 
  417000    20000    699690.43    372.60623   -87.347467      0.67534    1063.9356    100.72109    963.21454 
  418000    20000    699690.43    373.03468    9.7360832      0.67534    1056.7981    92.476033    964.32211 
  419000    20000    699690.43    373.59832    108.26106      0.67534     1066.064     100.2848    965.77918 
  420000    20000    699690.43    374.55392   -20.309244      0.67534    1073.7322    105.48268    968.24947 
  421000    20000    699690.43    370.66646    45.273739      0.67534    1056.6626    98.462504     958.2001 
  422000    20000    699690.43    370.91834   -142.15715      0.67534    1069.4255    110.57424    958.85121 
  423000    20000    699690.43    373.86798    37.565182      0.67534     1071.653    105.17669    966.47627 
  424000    20000    699690.43    373.25464    191.55893      0.67534    1076.4699    111.57918    964.89072 
  425000    20000    699690.43    372.11519   -36.085531      0.67534     1067.429    105.48385    961.94517 
  426000    20000    699690.43    374.58364   -114.55544      0.67534    1069.8357    101.50939     968.3263 
  427000    20000    699690.43    372.93957   -84.274576      0.67534    1064.9618    100.88553    964.07626 
  428000    20000    699690.43    371.87001    93.728483      0.67534    1047.7963    86.484952    961.31137 
  429000    20000    699690.43    369.18449   -79.043677      0.67534    1059.8471    105.47801    954.36909 
  430000    20000    699690.43    373.40302   -15.323496      0.67534    1063.9291    98.654756    965.27431 
  431000    20000    699690.43    369.03233   -15.814486      0.67534    1051.3449    97.369174    953.97574 
  432000    20000    699690.43    374.98296   -106.74586      0.67534     1067.198    97.839407    969.35856 
  433000    20000    699690.43    372.09054   -62.321532      0.67534    1060.9902    99.108744    961.88145 
  434000    20000    699690.43    372.61676    36.942831      0.67534    1066.1737    102.93189    963.24177 
  435000    20000    699690.43    374.25699    175.06049      0.67534    1071.4706    103.98872    967.48188 
  436000    20000    699690.43    369.27323   -144.88212      0.67534    1059.8971     105.2986    954.59849 
  437000    20000    699690.43    373.90332     87.73028      0.67534    1079.0652     112.4976    966.56763 
  438000    20000    699690.43    370.32524    125.81383      0.67534    1060.7671    103.44912    957.31802 
  439000    20000    699690.43     374.0284    104.41506      0.67534    1065.7274    98.836455    966.89097 
  440000    20000    699690.43     371.5389   -95.800551      0.67534    1050.9861    90.530702    960.45541 
  441000    20000    699690.43    375.36607   -94.257078      0.67534    1066.5703     96.22134    970.34893 
  442000    20000    699690.43    371.65336   -78.954848      0.67534    1059.6345    98.883178     960.7513 
  443000    20000    699690.43    372.94954   -39.408593      0.67534    1065.1384    101.03638    964.10202 
  444000    20000    699690.43    372.91186    38.508189      0.67534    1056.8347    92.830127    964.00461 
  445000    20000    699690.43    379.14517   -292.46947      0.67534    1074.1871    94.068925    980.11818 
  446000    20000    699690.43    371.49396   -131.12309      0.67534    1066.3607    106.02146    960.33925 
  447000    20000    699690.43    370.63268     22.67816      0.67534    1052.7017     94.58891    958.11276 
  448000    20000    699690.43    370.49913   -107.09997      0.67534    1057.7214    99.953823    957.76754 
  449000    20000    699690.43    377.17732     -40.7334      0.67534     1077.863    102.83185    975.03115 
  450000    20000    699690.43    371.31447   -149.84408      0.67534    1059.7724    99.897195    959.87524 
  451000    20000    699690.43    371.08153   -47.872513      0.67534    1063.2784    104.00533    959.27309 
  452000    20000    699690.43     372.3648   -77.095198      0.67534     1059.052    96.461628    962.59042 
  453000    20000    699690.43    371.47599   -128.22791      0.67534    1048.6079    88.315136    960.29278 
  454000    20000    699690.43    371.73835    -57.14707      0.67534    1052.9228    91.951741    960.97102 
  455000    20000    699690.43      373.371   -18.677673      0.67534    1068.2386    103.04705    965.19153 
  456000    20000    699690.43    373.56677    -1.736074      0.67534    1068.0851    102.38752    965.69761 
  457000    20000    699690.43    372.21438   -21.972798      0.67534    1060.5012    98.299637    962.20159 
  458000    20000    699690.43    371.61394   -59.663403      0.67534    1062.6349    101.98549     960.6494 
  459000    20000    699690.43    371.97652   -91.018551      0.67534    1049.5176    87.930924    961.58669 
  460000    20000    699690.43    370.18816   -27.298485      0.67534    1057.6241    100.66044    956.96366 
  461000    20000    699690.43    377.95182    99.388185      0.67534    1082.3342    105.30096    977.03328 
  462000    20000    699690.43    372.18741   -101.46294      0.67534    1054.4003    92.268474    962.13186 
  463000    20000    699690.43     372.8162   -15.601194      0.67534    1058.5068    94.749447    963.75734 
  464000    20000    699690.43    372.75181    2.2412207      0.67534    1066.7676    103.17669    963.59087 
  465000    20000    699690.43    373.94926     73.77777      0.67534    1071.3248    104.63844    966.68637 
  466000    20000    699690.43    371.17166    28.614496      0.67534    1065.3031    105.79705    959.50607 
  467000    20000    699690.43    370.89394   -343.93731      0.67534    1063.9907    105.20256    958.78815 
  468000    20000    699690.43    374.12683    42.136206      0.67534    1071.8634    104.71802     967.1454 
  469000    20000    699690.43     373.4495    423.75584      0.67534    1073.0437    107.64923    965.39445 
  470000    20000    699690.43    372.89875   -144.52229      0.67534    1066.1834    102.21267    963.97073 
  471000    20000    699690.43    374.78944    20.704528      0.67534    1067.9265    99.068175    968.85829 
  472000    20000    699690.43    375.67774    32.276416      0.67534    1075.5003    104.34568    971.15463 
  473000    20000    699690.43    375.95411   -89.372623      0.67534    1071.3186    99.449548    971.86907 
  474000    20000    699690.43    372.40271    8.0658217      0.67534    1062.4003    99.711914    962.68842 
  475000    20000    699690.43    370.51649   -196.55467      0.67534    1042.8781     85.06573     957.8124 
  476000    20000    699690.43    377.31715   -59.249581      0.67534    1089.7865    114.39385    975.39261 
  477000    20000    699690.43    376.08653    37.496551      0.67534     1062.567    90.355637    972.21136 
  478000    20000    699690.43    371.44784   -47.805795      0.67534    1058.0642    97.844178    960.22002 
  479000    20000    699690.43    371.62319    67.310187      0.67534    1069.4797    108.80644     960.6733 
  480000    20000    699690.43    373.57584   -67.364906      0.67534    1069.3825    103.66141    965.72105 
  481000    20000    699690.43    371.66407   -164.49067      0.67534    1062.0371    101.25815    960.77898 
  482000    20000    699690.43    377.71899    90.845474      0.67534    1076.3363    99.904888     976.4314 
  483000    20000    699690.43     377.3956    108.85898      0.67534    1065.4997    89.904271    975.59543 
  484000    20000    699690.43    371.22093    53.571482      0.67534    1042.9851    83.351621    959.63345 
  485000    20000    699690.43     376.3201    69.697928      0.67534    1069.2859    96.470758    972.81516 
  486000    20000    699690.43     371.2561    3.5814286      0.67534    1061.0349    101.31051    959.72436 
  487000    20000    699690.43    373.35682   -139.17744      0.67534    1071.1349       105.98    965.15488 
  488000    20000    699690.43    371.34788    48.191328      0.67534    1060.7434    100.78178    959.96162 
  489000    20000    699690.43    370.01758   -81.511834      0.67534    1062.9059    106.38322    956.52269 
  490000    20000    699690.43    375.44696   -149.29265      0.67534    1073.9103    103.35228    970.55804 
  491000    20000    699690.43    372.23224     72.41063      0.67534    1064.9518    102.70406    962.24775 
  492000    20000    699690.43    370.58254     35.31763      0.67534    1063.9031    105.91991    957.98316 
  493000    20000    699690.43    370.45382   -83.202939      0.67534     1069.543     111.8926     957.6504 
  494000    20000    699690.43     371.2508   -163.54704      0.67534    1060.4841    100.77339    959.71066 
  495000    20000    699690.43     373.1267   -98.089239      0.67534    1055.0293    90.469257    964.56001 
  496000    20000    699690.43    372.65872   -37.348079      0.67534    1068.9487    105.59845    963.35022 
  497000    20000    699690.43    367.32881    88.069824      0.67534    1052.2179    102.64585    949.57202 
  498000    20000    699690.43    374.23247   -3.2017882      0.67534    1076.3634    108.94494     967.4185 
  499000    20000    699690.43    373.63405   -2.3526662      0.67534      1071.97    106.09849    965.87155 
  500000    20000    699690.43    373.18895       -235.8      0.67534    1072.1708    107.44992    964.72093 
  501000    20000    699690.43    375.89216    176.08275      0.67534    1064.1282    92.419272     971.7089 
  502000    20000    699690.43    373.21093    -187.3537      0.67534    1057.5303    92.752534    964.77774 
  503000    20000    699690.43    372.12237    158.82637      0.67534    1060.5078    98.544054    961.96373 
  504000    20000    699690.43    375.76852   -454.63086      0.67534    1067.7356    96.346357    971.38929 
  505000    20000    699690.43    370.72689    117.09763      0.67534    1055.6431    97.286818     958.3563 
  506000    20000    699690.43    370.01645    69.814314      0.67534    1056.8208    100.30105    956.51976 
  507000    20000    699690.43    368.21644    35.947067      0.67534    1065.1143    113.24768    951.86663 
  508000    20000    699690.43    371.94581    114.81059      0.67534    1055.8968    94.389459     961.5073 
  509000    20000    699690.43    371.99114    38.990333      0.67534    1068.3447    106.72025    961.62449 
  510000    20000    699690.43    377.89629   -141.82991      0.67534    1067.1807    90.290948    976.88974 
  511000    20000    699690.43    374.05915   -97.702163      0.67534     1066.122    99.151608    966.97044 
  512000    20000    699690.43    374.66754    118.48807      0.67534    1062.3937    93.850557    968.54318 
  513000    20000    699690.43    375.60495   -17.794965      0.67534    1069.6528    98.686339    970.96645 
  514000    20000    699690.43     372.7023    77.217096      0.67534    1068.8704     105.4075     963.4629 
  515000    20000    699690.43    372.05591    59.935428      0.67534    1058.1861    96.394181    961.79193 
  516000    20000    699690.43     372.4376    163.46658      0.67534    1062.5595    99.780899    962.77862 
  517000    20000    699690.43    369.61633   -207.27923      0.67534    1059.6002    104.11476    955.48543 
  518000    20000    699690.43     374.3166    67.369452      0.67534    1053.4203     85.78434    967.63599 
  519000    20000    699690.43    373.18757   -84.026452      0.67534     1064.054    99.336681    964.71735 
  520000    20000    699690.43     373.6119    -19.03711      0.67534    1066.5901    100.77583    965.81428 
  521000    20000    699690.43    374.58983   -91.527087      0.67534    1072.5346    104.19229     968.3423 
  522000    20000    699690.43    372.04466   -56.441179      0.67534    1059.8371    98.074226    961.76285 
  523000    20000    699690.43    371.36424   -118.70253      0.67534    1064.4818    104.47789    960.00391 
  524000    20000    699690.43    370.04027   -142.17468      0.67534    1057.2852    100.70387    956.58136 
  525000    20000    699690.43    374.20769    98.398053      0.67534    1061.7731    94.418634    967.35443 
  526000    20000    699690.43    373.50815    -70.86475      0.67534    1065.3043     99.75827    965.54606 
  527000    20000    699690.43    373.81827    38.944174      0.67534    1068.0766    101.72887    966.34776 
  528000    20000    699690.43    374.25466   -114.56175      0.67534    1069.1588    101.68298    967.47586 
  529000    20000    699690.43    372.71431   -41.358795      0.67534    1071.9634    108.46946    963.49395 
  530000    20000    699690.43    369.11511   -134.86738      0.67534    1051.5699     97.38021    954.18974 
  531000    20000    699690.43    374.19818    61.233887      0.67534    1070.4559    103.12607    967.32984 
  532000    20000    699690.43    372.79327     77.09653      0.67534    1062.8651    99.167096    963.69805 
  533000    20000    699690.43    370.71821    40.828465      0.67534    1060.1159    101.78205    958.33388 
  534000    20000    699690.43    370.48625    38.354533      0.67534    1052.9066    95.172351    957.73423 
  535000    20000    699690.43     373.8128    107.72217      0.67534    1068.5754    102.24174    966.33362 
  536000    20000    699690.43    374.33806    83.041923      0.67534    1055.1284    87.436917    967.69146 
  537000    20000    699690.43    369.19556     26.73632      0.67534    1059.6947    105.29702    954.39771 
  538000    20000    699690.43    378.31589   -58.020461      0.67534    1083.9185    105.94401    977.97444 
  539000    20000    699690.43    374.57614    64.987967      0.67534    1062.6916    94.384684     968.3069 
  540000    20000    699690.43    374.99542    105.49474      0.67534    1069.1535    99.762718    969.39078 
  541000    20000    699690.43    369.32241   -0.6325654      0.67534    1046.0676    91.341953    954.72562 
  542000    20000    699690.43    376.85313   -29.409613      0.67534    1066.8561    92.663022    974.19308 
  543000    20000    699690.43    373.71295    53.999637      0.67534    1065.4165    99.341042     966.0755 
  544000    20000    699690.43    372.40547    204.56602      0.67534    1067.8191    105.12357    962.69557 
  545000    20000    699690.43    374.08526      292.722      0.67534    1067.3347    100.29671    967.03795 
  546000    20000    699690.43    372.44483   -258.00068      0.67534    1062.4552    99.657934    962.79731 
  547000    20000    699690.43     373.2147   -75.403351      0.67534    1059.4093    94.621846    964.78747 
  548000    20000    699690.43    375.16812   -2.5659442      0.67534    1064.7699    94.932625    969.83723 
  549000    20000    699690.43    376.40949    98.887972      0.67534    1068.3088    95.262556    973.04624 
  550000    20000    699690.43    369.06086     31.59991      0.67534     1050.403    96.353469     954.0495 
  551000    20000    699690.43    374.08353    107.34391      0.67534    1066.9495    99.916002    967.03348 
  552000    20000    699690.43    372.48505   -122.57365      0.67534    1058.3797    95.478449    962.90128 
  553000    20000    699690.43    373.91184   -66.430046      0.67534    1065.4752    98.885524    966.58965 
  554000    20000    699690.43    372.11476    -167.2435      0.67534    1062.8565    100.91248    961.94405 
  555000    20000    699690.43    373.40462    9.2670938      0.67534    1061.3265    96.048078    965.27843 
  556000    20000    699690.43    372.62531    55.845201      0.67534     1058.516    95.252089    963.26388 
  557000    20000    699690.43    370.12863   -193.22648      0.67534     1058.131    101.32121    956.80976 
  558000    20000    699690.43    370.41591   -3.9691852      0.67534     1052.801    95.248644     957.5524 
  559000    20000    699690.43    372.23118   -4.3826023      0.67534    1054.5058    92.260826    962.24502 
  560000    20000    699690.43    371.71832   -264.56683      0.67534    1052.5666    91.647367    960.91923 
  561000    20000    699690.43    372.71258   -210.89522      0.67534    1065.2156    101.72615    963.48948 
  562000    20000    699690.43    373.93799    -175.5727      0.67534    1065.3862    98.728936    966.65724 
  563000    20000    699690.43    375.66369    5.7745126      0.67534    1069.8631    98.744801    971.11831 
  564000    20000    699690.43    370.91934    26.685776      0.67534    1057.5581    98.704283    958.85382 
  565000    20000    699690.43    375.08214    -118.4294      0.67534    1064.4931    94.878122    969.61495 
  566000    20000    699690.43    373.61207   -59.877867      0.67534    1070.2735    104.45874    965.81472 
  567000    20000    699690.43    375.13074    -54.93838      0.67534    1077.6045    107.86389    969.74058 
  568000    20000    699690.43    373.30752   -44.126825      0.67534    1054.5628     89.53536    965.02743 
  569000    20000    699690.43    371.58149    163.19399      0.67534     1053.669    93.103512    960.56551 
  570000    20000    699690.43     368.8317    106.01659      0.67534    1058.5097    105.05263     953.4571 
  571000    20000    699690.43    373.48482    67.212483      0.67534    1071.7012    106.21546    965.48578 
  572000    20000    699690.43    374.91846   -188.04633      0.67534    1071.6148    102.42292    969.19184 
  573000    20000    699690.43    369.43597   -127.72614      0.67534    1049.8796    94.860362     955.0192 
[...]
21834000    20000    699690.43    373.90416   -22.475048      0.67534     1065.311    98.741177    966.56979 
21835000    20000    699690.43     373.4759    186.09947      0.67534    1071.7099    106.24724    965.46269 
21836000    20000    699690.43    373.98657   -40.843972      0.67534    1069.2548    102.47193    966.78282 
21837000    20000    699690.43    370.33285   -189.04432      0.67534     1053.999    96.661333    957.33768 
21838000    20000    699690.43    369.39825    147.70744      0.67534    1064.6224    109.70069    954.92168 
21839000    20000    699690.43    372.95704    33.998888      0.67534    1067.7536    103.63222     964.1214 
21840000    20000    699690.43    373.87879   -99.018794      0.67534    1062.4028    95.898604     966.5042 
21841000    20000    699690.43    368.52557    35.308414      0.67534     1059.026    106.36031    952.66573 
21842000    20000    699690.43    372.91689    166.25552      0.67534    1061.9897    97.972044    964.01762 
21843000    20000    699690.43    374.75276    108.32383      0.67534     1065.766     97.00255    968.76348 
21844000    20000    699690.43    375.00664   -24.098621      0.67534    1071.2734    101.85365    969.41978 
21845000    20000    699690.43    376.01194    71.844367      0.67534    1072.1819    100.16338    972.01854 
21846000    20000    699690.43    375.04991   -134.27831      0.67534    1070.2252     100.6936    969.53164 
21847000    20000    699690.43    373.35738   -31.726532      0.67534    1050.4768    85.320466    965.15632 
21848000    20000    699690.43    372.64628    22.893193      0.67534    1069.8769     106.5588    963.31807 
21849000    20000    699690.43    370.62546   -29.287898      0.67534     1057.475    99.380832    958.09412 
21850000    20000    699690.43    375.26168   -12.537783      0.67534    1068.1863    98.107177    970.07908 
21851000    20000    699690.43    373.46963   -90.583516      0.67534    1064.2226    98.776054    965.44651 
21852000    20000    699690.43     377.0007    77.812167      0.67534    1080.3641     105.7895    974.57457 
21853000    20000    699690.43    375.60012   -15.534843      0.67534    1073.1649    102.21098    970.95396 
21854000    20000    699690.43    369.62084    144.94063      0.67534    1055.8671    100.36999    955.49709 
21855000    20000    699690.43    371.79726    134.01225      0.67534     1057.089    95.965683     961.1233 
21856000    20000    699690.43    374.94847    182.27751      0.67534    1073.6223    104.35292    969.26941 
21857000    20000    699690.43    374.99333    47.253183      0.67534    1066.8504    97.465064    969.38537 
21858000    20000    699690.43    369.84359    85.050467      0.67534    1060.3546    104.28167    956.07292 
21859000    20000    699690.43    370.12008    162.68038      0.67534    1048.6918    91.904175    956.78766 
21860000    20000    699690.43    374.33505    146.90297      0.67534    1067.4544    99.770726    967.68366 
21861000    20000    699690.43    377.81048   -29.921113      0.67534    1069.5469    92.878973     976.6679 
21862000    20000    699690.43    370.94615   -126.09236      0.67534    1063.9451      105.022    958.92311 
21863000    20000    699690.43     376.2491    114.38866      0.67534    1077.5596    104.92794    972.63163 
21864000    20000    699690.43    375.07413    -47.78007      0.67534    1062.9374    93.343126    969.59425 
21865000    20000    699690.43    372.48136    10.284469      0.67534    1051.4938    88.602026    962.89174 
21866000    20000    699690.43    373.36276    90.213378      0.67534    1077.8216    112.65137    965.17023 
21867000    20000    699690.43    374.70316   -12.035653      0.67534    1080.6439    112.00864    968.63525 
21868000    20000    699690.43    372.31595   -49.450091      0.67534    1067.7162      105.252    962.46415 
21869000    20000    699690.43    374.53405    126.25767      0.67534    1082.1711    113.97296    968.19809 
21870000    20000    699690.43    371.30044     -9.41607      0.67534    1061.7077    101.86874    959.83897 
21871000    20000    699690.43    375.63884    144.71152      0.67534    1078.3129    107.25884    971.05406 
21872000    20000    699690.43    368.70818    38.792699      0.67534    1055.3315    102.19371    953.13779 
21873000    20000    699690.43    375.74463   -226.08706      0.67534    1080.7522    109.42467    971.32753 
21874000    20000    699690.43    379.51287   -207.46996      0.67534    1090.6976    109.62888    981.06872 
21875000    20000    699690.43    371.38226   -167.80509      0.67534       1061.9    101.84954    960.05049 
21876000    20000    699690.43    371.74573    100.61465      0.67534    1066.7564    105.76634    960.99009 
21877000    20000    699690.43    370.52724   -135.15577      0.67534    1066.2189    108.37868    957.84021 
21878000    20000    699690.43    374.25026    11.093952      0.67534    1064.7853    97.320794    967.46448 
21879000    20000    699690.43    373.59109   -158.75728      0.67534    1082.1007    116.34023    965.76047 
21880000    20000    699690.43    371.21146   -5.4570149      0.67534    1059.0677    99.458769    959.60896 
21881000    20000    699690.43     374.0142     116.3958      0.67534     1066.138    99.283768    966.85425 
21882000    20000    699690.43    373.67281    76.259806      0.67534     1065.312    99.340298    965.97172 
21883000    20000    699690.43    376.13731    58.516927      0.67534    1073.3281    100.98548    972.34264 
21884000    20000    699690.43    376.49927    121.06404      0.67534    1078.7417    105.46342    973.27833 
21885000    20000    699690.43    371.40654   -10.526557      0.67534    1064.9366    104.82335    960.11326 
21886000    20000    699690.43    375.98224   -69.631351      0.67534    1090.9174    118.97564    971.94179 
21887000    20000    699690.43    369.72727    121.96507      0.67534    1063.0148    107.24256    955.77222 
21888000    20000    699690.43    372.84813    30.765685      0.67534    1066.0001    102.16027    963.83988 
21889000    20000    699690.43    375.39697    149.44546      0.67534    1082.2382    111.80942    970.42882 
21890000    20000    699690.43    374.49472    108.68347      0.67534    1082.4791    114.38266    968.09643 
21891000    20000    699690.43    373.09698    58.061475      0.67534     1062.837    98.353867    964.48318 
21892000    20000    699690.43    373.84327   -98.790435      0.67534    1076.7356    110.32319    966.41239 
21893000    20000    699690.43     376.6104  -0.34600533      0.67534    1079.1542    105.58861    973.56561 
21894000    20000    699690.43    372.87602   -7.8439686      0.67534    1060.8875    96.975533    963.91197 
21895000    20000    699690.43    373.13777    62.234395      0.67534    1066.7737    102.18509    964.58862 
21896000    20000    699690.43    375.37336   -163.28755      0.67534    1075.7874    105.41963    970.36777 
21897000    20000    699690.43    370.19825   -111.82185      0.67534    1061.8011    104.81139    956.98975 
21898000    20000    699690.43    376.64815   -17.837589      0.67534    1074.7953    101.13207    973.66321 
21899000    20000    699690.43    371.91141    71.064596      0.67534    1060.9931    99.574671    961.41839 
21900000    20000    699690.43    373.66118    9.3939328      0.67534     1061.791    95.849374    965.94165 
21901000    20000    699690.43    372.70322    94.688493      0.67534    1065.1456    101.68035    963.46526 
21902000    20000    699690.43    371.64586     150.5301      0.67534    1055.1658    94.433909    960.73191 
21903000    20000    699690.43    371.42886   -34.369715      0.67534     1059.616    99.445038    960.17096 
21904000    20000    699690.43     377.0176   -131.83677      0.67534    1075.4786    100.86033    974.61825 
21905000    20000    699690.43    372.92043   -154.02142      0.67534    1065.2835    101.25673    964.02677 
21906000    20000    699690.43    372.09268   -246.37628      0.67534    1063.6175    101.73053    961.88698 
21907000    20000    699690.43    371.53886   -42.719723      0.67534      1067.71    107.25464    960.45531 
21908000    20000    699690.43    374.60904    111.57305      0.67534    1075.7039    107.31197    968.39195 
21909000    20000    699690.43    372.94118    193.34823      0.67534    1059.0318    94.951419    964.08041 
21910000    20000    699690.43    371.27757   -173.07355      0.67534    1065.5144    105.73452    959.77985 
21911000    20000    699690.43    374.91513    111.93286      0.67534    1086.4432    117.26002    969.18321 
21912000    20000    699690.43    374.82248    48.701958      0.67534    1076.4909    107.54715    968.94372 
21913000    20000    699690.43    371.64272   -64.949516      0.67534    1069.9992    109.27536    960.72379 
21914000    20000    699690.43    371.23729    108.11483      0.67534      1070.97    111.29424    959.67572 
21915000    20000    699690.43    374.00029   -100.65344      0.67534    1064.3448    97.526558    966.81829 
21916000    20000    699690.43    376.48771    117.76234      0.67534     1081.985    108.73657    973.24846 
21917000    20000    699690.43    372.08887   -82.629617      0.67534    1060.9274    99.050259    961.87713 
21918000    20000    699690.43    369.84688     148.7992      0.67534    1068.1953    112.11387    956.08142 
21919000    20000    699690.43    373.66143   -62.601383      0.67534    1077.1319    111.18958    965.94231 
21920000    20000    699690.43    373.53812    152.45856      0.67534    1066.7573    101.13371    965.62355 
21921000    20000    699690.43    368.48334   -150.59577      0.67534    1050.3281    97.771519    952.55656 
21922000    20000    699690.43    371.54347    213.53425      0.67534    1064.6677    104.20044    960.46723 
21923000    20000    699690.43    376.13174    63.132565      0.67534    1082.8445    110.51625    972.32824 
21924000    20000    699690.43    370.76953    23.610779      0.67534    1059.8448    101.37825    958.46654 
21925000    20000    699690.43    370.54411   -20.514705      0.67534    1058.7544    100.87059    957.88381 
21926000    20000    699690.43    371.53538   -204.64947      0.67534    1062.3395    101.89321    960.44632 
21927000    20000    699690.43    376.58021   -214.94427      0.67534    1082.9326      109.445    973.48758 
21928000    20000    699690.43    371.29347   -136.46695      0.67534    1058.5909    98.769944    959.82095 
21929000    20000    699690.43    373.81398   -166.70901      0.67534    1061.0628    94.726122    966.33667 
21930000    20000    699690.43    374.40019    26.469552      0.67534    1083.6673    115.81524    967.85205 
21931000    20000    699690.43    374.41541   -146.96234      0.67534    1070.8318    102.94043    967.89141 
21932000    20000    699690.43    370.69149    107.16593      0.67534    1061.4415    103.17668    958.26479 
21933000    20000    699690.43    373.41017   -121.35487      0.67534    1073.9989     108.7061    965.29279 
21934000    20000    699690.43    379.38058    39.754115      0.67534    1082.4693    101.74256    980.72675 
21935000    20000    699690.43    375.87186   -30.048158      0.67534    1082.3891    110.73265    971.65645 
21936000    20000    699690.43    370.89649    17.212151      0.67534    1070.8242    112.02949    958.79475 
21937000    20000    699690.43    370.84914   -65.838254      0.67534    1063.8693    105.19692    958.67235 
21938000    20000    699690.43    372.22755   -138.40624      0.67534    1081.5065    119.27088    962.23564 
21939000    20000    699690.43    370.81277    46.203729      0.67534    1063.8866    105.30833    958.57832 
21940000    20000    699690.43    374.70319    121.97291      0.67534    1076.9438    108.30846    968.63534 
21941000    20000    699690.43    367.15102    127.69909      0.67534    1055.0432    105.93073    949.11243 
21942000    20000    699690.43    371.38027    33.181289      0.67534     1048.967    88.921636    960.04533 
21943000    20000    699690.43    372.56505   -112.58129      0.67534    1063.2242     100.1161    963.10809 
21944000    20000    699690.43    373.49582   -3.5307789      0.67534    1071.7646    106.25038    965.51419 
21945000    20000    699690.43    372.89599   -59.122676      0.67534    1071.6395    107.67595    963.96358 
21946000    20000    699690.43    373.52127   -18.893239      0.67534    1064.0846    98.504625    965.57998 
21947000    20000    699690.43    375.53792    251.70906      0.67534    1066.3239     95.53075    970.79319 
21948000    20000    699690.43    375.55565   -17.709532      0.67534    1072.2235    101.38447    970.83901 
21949000    20000    699690.43     378.1301   -59.568811      0.67534    1073.7196    96.225505    977.49414 
21950000    20000    699690.43    372.91784   -92.263899      0.67534    1063.8862    99.866115    964.02008 
21951000    20000    699690.43    369.35107     98.81984      0.67534    1066.3351    111.53539    954.79972 
21952000    20000    699690.43    372.68006   -19.729853      0.67534    1065.3263    101.92092    963.40539 
21953000    20000    699690.43     372.2826   -28.564462      0.67534    1061.5981    99.220168    962.37793 
21954000    20000    699690.43    370.54119   -63.827241      0.67534    1059.5986    101.72234    957.87625 
21955000    20000    699690.43    373.76511    249.08682      0.67534    1069.8508    103.64046    966.21033 
21956000    20000    699690.43    371.25471   -108.98931      0.67534    1066.5844    106.86369    959.72076 
21957000    20000    699690.43    370.05196    18.516797      0.67534     1062.486    105.87449    956.61156 
21958000    20000    699690.43    372.37588    36.320854      0.67534    1061.0417    98.422588    962.61907 
21959000    20000    699690.43    372.58459    230.04613      0.67534    1067.1992    104.04061    963.15861 
21960000    20000    699690.43     373.0447    18.661987      0.67534    1071.7196    107.37154    964.34802 
21961000    20000    699690.43    376.73186   -1.2598534      0.67534     1075.053    101.17339     973.8796 
21962000    20000    699690.43    374.24041    36.014001      0.67534    1067.6252    100.18615    967.43902 
21963000    20000    699690.43    373.50393   -136.17031      0.67534    1065.9477     100.4125    965.53516 
21964000    20000    699690.43    373.83063    80.241369      0.67534    1069.8368    103.45709    966.37972 
21965000    20000    699690.43    375.27625   -108.85347      0.67534    1081.3627    111.24601    970.11673 
21966000    20000    699690.43    370.21302     137.6883      0.67534    1061.0262    103.99833    957.02791 
21967000    20000    699690.43    375.21454   -40.960108      0.67534    1064.3478    94.390624    969.95722 
21968000    20000    699690.43    373.12588    -152.7622      0.67534    1069.3542    104.79627    964.55789 
21969000    20000    699690.43    375.59804    59.162559      0.67534    1080.2226    109.27402    970.94859 
21970000    20000    699690.43    372.31494    336.25112      0.67534    1079.0612    116.59965    962.46154 
21971000    20000    699690.43    370.27325   -163.54152      0.67534    1053.7993    96.615704    957.18362 
21972000    20000    699690.43    372.90387    73.528322      0.67534    1082.5071    118.52317    963.98398 
21973000    20000    699690.43    373.18226    372.90603      0.67534    1065.7953    101.09171    964.70363 
21974000    20000    699690.43    371.27506   -115.51792      0.67534    1056.8246    97.051196    959.77338 
21975000    20000    699690.43    374.45616   -130.13872      0.67534    1067.9069    99.910118    967.99676 
21976000    20000    699690.43    372.71029    89.704151      0.67534    1075.2521     111.7685    963.48356 
21977000    20000    699690.43    371.87925   -55.560159      0.67534    1068.0126     106.6774    961.33525 
21978000    20000    699690.43    373.07123    -149.4786      0.67534    1070.7463    106.32969    964.41659 
21979000    20000    699690.43    375.00133   -35.202384      0.67534    1079.6309    110.22481    969.40604 
21980000    20000    699690.43    373.80116   -141.39965      0.67534     1065.061    98.757463    966.30354 
21981000    20000    699690.43    374.55924    -253.5379      0.67534    1085.9589    117.69571    968.26321 
21982000    20000    699690.43    376.16651   -104.41199      0.67534    1085.6469    113.22876    972.41813 
21983000    20000    699690.43    373.28353   -111.63338      0.67534    1075.7707    110.80529    964.96542 
21984000    20000    699690.43    370.49875  -0.91046308      0.67534    1064.2611     106.4945    957.76656 
21985000    20000    699690.43    371.90653    137.55659      0.67534    1056.6741    95.268347    961.40577 
21986000    20000    699690.43    373.64959    29.350377      0.67534    1078.7334    112.82167     965.9117 
21987000    20000    699690.43    370.41431     52.91249      0.67534    1065.5565    108.00822    957.54826 
21988000    20000    699690.43    374.08642    18.713795      0.67534    1060.9285     93.88757    967.04095 
21989000    20000    699690.43    375.47936   -196.22102      0.67534    1079.0798    108.43802    970.64179 
21990000    20000    699690.43    371.45298    29.666143      0.67534    1066.3531    106.11977    960.23332 
21991000    20000    699690.43    372.65744    95.647312      0.67534     1070.778    107.43107    963.34693 
21992000    20000    699690.43    374.52351   -170.94855      0.67534    1075.5878      107.417    968.17084 
21993000    20000    699690.43    374.14157   -92.090615      0.67534    1062.8134    95.629899    967.18351 
21994000    20000    699690.43    372.37008    46.464942      0.67534     1077.547    114.94291    962.60407 
21995000    20000    699690.43    373.90577    4.3679853      0.67534    1060.9655    94.391516    966.57396 
21996000    20000    699690.43     371.4794    -21.06667      0.67534    1075.0931    114.79145     960.3016 
21997000    20000    699690.43    373.57927    36.064031      0.67534    1073.0695     107.3396    965.72994 
21998000    20000    699690.43    374.19235    148.88767      0.67534    1070.6591    103.34428    967.31477 
21999000    20000    699690.43    375.51416    84.757484      0.67534    1078.3174    107.58567    970.73176 
22000000    20000    699690.43    371.67317   -72.629103      0.67534     1069.926     109.1235    960.80252 
Loop time of 98388.8 on 24 procs for 22000000 steps with 20000 atoms

Performance: 9.660 ns/day, 2.485 hours/ns, 223.603 timesteps/s
99.8% CPU use with 24 MPI tasks x no OpenMP threads

MPI task timing breakdown:
Section |  min time  |  avg time  |  max time  |%varavg| %total
---------------------------------------------------------------
Pair    | 80182      | 82234      | 85265      | 664.0 | 83.58
Bond    | 2329.2     | 2395.1     | 2474.8     | 113.7 |  2.43
Neigh   | 2034.1     | 2036.6     | 2038.5     |   3.0 |  2.07
Comm    | 5533.9     | 8499.5     | 10676      |2130.1 |  8.64
Output  | 5.7037     | 6.9322     | 6.9916     |   9.7 |  0.01
Modify  | 2886.8     | 3047       | 3249.3     | 220.2 |  3.10
Other   |            | 169.7      |            |       |  0.17

Nlocal:    833.333 ave 857 max 808 min
Histogram: 3 2 3 1 2 2 4 1 4 2
Nghost:    6434.12 ave 6492 max 6384 min
Histogram: 1 5 3 3 2 1 5 0 1 3
Neighs:    202117 ave 210803 max 192265 min
Histogram: 1 4 1 2 4 1 2 4 3 2

Total # of neighbors = 4850809
Ave neighs/atom = 242.54
Ave special neighs/atom = 4.8
Neighbor list builds = 213053
Dangerous builds = 0

if "${do_shake} == 1" then      "unfix      shk"
unfix           NVT_sllod

# Write Data File
write_data      data.${norun}.Bulk_NVT nocoeff nofix
write_data      data.1.Bulk_NVT nocoeff nofix

shell           mv log.lammps log.${norun}.Bulk_NVT
shell           mv log.lammps log.1.Bulk_NVT
WARNING: Shell command 'mv' failed with error 'No such file or directory' (../input.cpp:1303)

Please see the log.cite file for references relevant to this simulation

Total wall time: 27:20:20
